 Gaussian 16, Revision A.03,
 Gaussian 16:  EM64L-G16RevA.03 25-Dec-2016

 ---------------------------------------------------------------
 #P uLC-wPBE/cc-pVDZ iop(3/107=0144300000, 3/108=0144300000) opt
 ---------------------------------------------------------------

 ----------
 H72 C91 O7
 ----------
 Symbolic Z-matrix:
 Charge =  0 Multiplicity = 1

 SCF Done:  E(ULC-wPBE) =  -4033.58070523     A.U. after   16 cycles
 SCF Done:  E(ULC-wPBE) =  -4033.68944963     A.U. after   16 cycles
 SCF Done:  E(ULC-wPBE) =  -4033.80919598     A.U. after   14 cycles
 SCF Done:  E(ULC-wPBE) =  -4033.84921209     A.U. after   15 cycles
 SCF Done:  E(ULC-wPBE) =  -4033.85947610     A.U. after   14 cycles
 SCF Done:  E(ULC-wPBE) =  -4033.86418353     A.U. after   15 cycles
 SCF Done:  E(ULC-wPBE) =  -4033.86638841     A.U. after   15 cycles
 SCF Done:  E(ULC-wPBE) =  -4033.86704497     A.U. after   13 cycles
 SCF Done:  E(ULC-wPBE) =  -4033.86719233     A.U. after   11 cycles
 SCF Done:  E(ULC-wPBE) =  -4033.86721959     A.U. after   12 cycles
 SCF Done:  E(ULC-wPBE) =  -4033.86722519     A.U. after   11 cycles
 SCF Done:  E(ULC-wPBE) =  -4033.86722818     A.U. after   10 cycles
 SCF Done:  E(ULC-wPBE) =  -4033.86722991     A.U. after   11 cycles
 SCF Done:  E(ULC-wPBE) =  -4033.86723041     A.U. after   10 cycles
 SCF Done:  E(ULC-wPBE) =  -4033.86723044     A.U. after    6 cycles
 SCF Done:  E(ULC-wPBE) =  -4033.86723062     A.U. after    5 cycles
 SCF Done:  E(ULC-wPBE) =  -4033.86723062     A.U. after    5 cycles
 Optimization completed.
    -- Stationary point found.

                         Standard orientation:
 ---------------------------------------------------------------------
 Center     Atomic      Atomic             Coordinates (Angstroms)
 Number     Number       Type             X           Y           Z
 ---------------------------------------------------------------------
      1          6           0       29.842383    0.076355   -0.602011
      2          6           0       29.140056   -0.886632   -1.340447
      3          6           0       27.742511   -0.941132   -1.286588
      4          6           0       27.014512   -0.026827   -0.496592
      5          6           0       27.734149    0.934803    0.242965
      6          6           0       29.132889    0.986783    0.192002
      7          6           0       25.524571   -0.024528   -0.461470
      8          6           0       24.818366    1.184483   -0.581361
      9          6           0       23.420797    1.243263   -0.537722
     10          6           0       22.669554    0.068076   -0.364702
     11          6           0       23.358723   -1.156402   -0.239751
     12          6           0       24.760538   -1.211000   -0.288019
     13          8           0       25.472769   -2.375294   -0.169531
     14          6           0       24.749192   -3.576768    0.063329
     15          6           0       21.183194    0.103877   -0.314992
     16          6           0       20.447443    0.965052   -1.155195
     17          6           0       19.051553    1.008426   -1.108951
     18          6           0       18.327239    0.184714   -0.222231
     19          6           0       19.062905   -0.674312    0.620185
     20          6           0       20.459934   -0.714537    0.575526
     21          6           0       16.838716    0.168110   -0.185964
     22          6           0       16.148094   -1.055118   -0.135234
     23          6           0       14.751655   -1.125873   -0.081606
     24          6           0       13.984416    0.051836   -0.073425
     25          6           0       14.657285    1.290640   -0.121796
     26          6           0       16.058219    1.356947   -0.178709
     27          8           0       16.753815    2.536117   -0.224193
     28          6           0       16.013749    3.748553   -0.158488
     29          6           0       12.498690    0.003651   -0.017459
     30          6           0       11.775245   -0.979527   -0.723896
     31          6           0       10.380045   -1.033979   -0.670701
     32          6           0        9.644045   -0.100249    0.088162
     33          6           0       10.367431    0.880882    0.797193
     34          6           0       11.763851    0.932484    0.746242
     35          6           0        8.155552   -0.097453    0.121598
     36          6           0        7.449506    1.111795   -0.001817
     37          6           0        6.052291    1.171789    0.043309
     38          6           0        5.300013   -0.002714    0.218413
     39          6           0        5.988719   -1.227156    0.346825
     40          6           0        7.390390   -1.283070    0.298558
     41          8           0        8.102130   -2.444841    0.440347
     42          6           0        7.377133   -3.645347    0.675659
     43          6           0        3.813643    0.033909    0.264579
     44          6           0        3.131821    1.082907    0.915447
     45          6           0        1.735967    1.122079    0.965471
     46          6           0        0.957909    0.114577    0.358027
     47          6           0        1.639440   -0.935175   -0.291421
     48          6           0        3.036462   -0.975739   -0.337260
     49          6           0       -0.530679    0.156184    0.346155
     50          6           0       -1.234279   -0.119978   -0.838992
     51          6           0       -2.632169   -0.110486   -0.900033
     52          6           0       -3.387707    0.178487    0.249505
     53          6           0       -2.701653    0.456407    1.450292
     54          6           0       -1.299138    0.449116    1.506309
     55          8           0       -0.590870    0.710147    2.649579
     56          6           0       -1.322072    0.949611    3.845445
     57          6           0       -4.874749    0.195292    0.210123
     58          6           0       -5.641838   -0.308620    1.279375
     59          6           0       -7.039415   -0.291789    1.236001
     60          6           0       -7.731619    0.230054    0.123855
     61          6           0       -6.963744    0.739674   -0.943834
     62          6           0       -5.567218    0.718392   -0.901497
     63          6           0       -9.219781    0.188727    0.085993
     64          6           0       -9.903437   -0.971909    0.487667
     65          6           0      -11.300148   -1.056872    0.487107
     66          6           0      -12.074730    0.042692    0.078834
     67          6           0      -11.408877    1.218479   -0.326147
     68          6           0      -10.007520    1.298231   -0.327349
     69          8           0       -9.318404    2.418856   -0.709544
     70          6           0      -10.069423    3.569659   -1.075261
     71          6           0      -13.560911   -0.022508    0.067492
     72          6           0      -14.346158    1.080982    0.460649
     73          6           0      -15.742210    1.019220    0.455335
     74          6           0      -16.416299   -0.150563    0.047549
     75          6           0      -15.631217   -1.255098   -0.342558
     76          6           0      -14.234334   -1.193881   -0.332492
     77          6           0      -17.901735   -0.230211   -0.022743
     78          6           0      -18.524742   -0.800316   -1.146432
     79          6           0      -19.915113   -0.914756   -1.254873
     80          6           0      -20.744821   -0.455815   -0.217263
     81          6           0      -20.140262    0.117793    0.920803
     82          6           0      -18.745218    0.234054    1.023823
     83          8           0      -18.114487    0.781541    2.109766
     84          6           0      -18.918580    1.199656    3.205544
     85          6           0      -22.225602   -0.566414   -0.308574
     86          6           0      -22.898364   -0.338219   -1.526868
     87          6           0      -24.289116   -0.438029   -1.618698
     88          6           0      -25.069348   -0.779198   -0.494678
     89          6           0      -24.397301   -1.006292    0.723569
     90          6           0      -23.005801   -0.901627    0.815885
     91          6           0      -26.547979   -0.947592   -0.573351
     92          6           0      -27.158463   -2.065416    0.022392
     93          6           0      -28.546117   -2.260551   -0.007877
     94          6           0      -29.353821   -1.316440   -0.647115
     95          6           0      -28.780297   -0.187878   -1.250848
     96          6           0      -27.387668    0.001409   -1.219642
     97          8           0      -26.758751    1.083827   -1.775963
     98          6           0      -27.568873    2.081514   -2.384155
     99          1           0       30.940117    0.114723   -0.643486
    100          1           0       29.686860   -1.604014   -1.969118
    101          1           0       27.201372   -1.697662   -1.868517
    102          1           0       27.184759    1.640756    0.882345
    103          1           0       29.671521    1.741432    0.782794
    104          1           0       25.393589    2.110145   -0.725481
    105          1           0       22.911772    2.213248   -0.616543
    106          1           0       22.776304   -2.079020   -0.129597
    107          1           0       24.157000   -3.525592    1.002677
    108          1           0       25.509736   -4.372056    0.156168
    109          1           0       24.067063   -3.820816   -0.780042
    110          1           0       20.981727    1.595012   -1.880640
    111          1           0       18.508243    1.682340   -1.782743
    112          1           0       18.527740   -1.303386    1.345910
    113          1           0       21.003087   -1.370180    1.271230
    114          1           0       16.735050   -1.984473   -0.150600
    115          1           0       14.255851   -2.104119   -0.023726
    116          1           0       14.062735    2.211854   -0.141195
    117          1           0       16.763448    4.559138   -0.177282
    118          1           0       15.329070    3.864438   -1.026681
    119          1           0       15.421947    3.819259    0.779754
    120          1           0       12.318432   -1.700415   -1.351464
    121          1           0        9.846277   -1.805023   -1.239925
    122          1           0        9.822984    1.601153    1.424561
    123          1           0       12.297541    1.688757    1.339631
    124          1           0        8.023807    2.034302   -0.167998
    125          1           0        5.542207    2.134490   -0.095078
    126          1           0        5.408398   -2.141194    0.520636
    127          1           0        8.136982   -4.440998    0.770610
    128          1           0        6.784769   -3.591708    1.614607
    129          1           0        6.695253   -3.890135   -0.167656
    130          1           0        3.710587    1.874307    1.412746
    131          1           0        1.235580    1.947352    1.486841
    132          1           0        1.060131   -1.742243   -0.762431
    133          1           0        3.534910   -1.798154   -0.870210
    134          1           0       -0.656332   -0.337989   -1.748316
    135          1           0       -3.139294   -0.350715   -1.844100
    136          1           0       -3.285540    0.707403    2.343913
    137          1           0       -0.564923    1.102390    4.634654
    138          1           0       -1.963339    0.083075    4.116424
    139          1           0       -1.957590    1.858538    3.768393
    140          1           0       -5.134588   -0.741600    2.153525
    141          1           0       -7.610860   -0.683854    2.089565
    142          1           0       -7.472666    1.161074   -1.819445
    143          1           0       -4.996900    1.138372   -1.742282
    144          1           0       -9.310331   -1.843130    0.800114
    145          1           0      -11.791458   -1.978278    0.827383
    146          1           0      -12.007603    2.070668   -0.669356
    147          1           0       -9.325516    4.350498   -1.312635
    148          1           0      -10.702772    3.384807   -1.970045
    149          1           0      -10.715884    3.921253   -0.242176
    150          1           0      -13.850697    2.001344    0.802041
    151          1           0      -16.324621    1.891900    0.775598
    152          1           0      -16.128216   -2.186115   -0.650760
    153          1           0      -13.652664   -2.067269   -0.659969
    154          1           0      -17.888612   -1.155397   -1.969645
    155          1           0      -20.356814   -1.384655   -2.143839
    156          1           0      -20.783786    0.500387    1.722056
    157          1           0      -18.213909    1.570789    3.970498
    158          1           0      -19.613848    2.019300    2.921292
    159          1           0      -19.507694    0.357434    3.628728
    160          1           0      -22.318940   -0.054338   -2.416948
    161          1           0      -24.783708   -0.246113   -2.578953
    162          1           0      -24.980709   -1.261584    1.619863
    163          1           0      -22.512026   -1.105472    1.776884
    164          1           0      -26.513238   -2.812317    0.506632
    165          1           0      -28.988245   -3.150108    0.460491
    166          1           0      -30.444116   -1.450127   -0.685094
    167          1           0      -29.428616    0.546228   -1.744089
    168          1           0      -28.142206    1.680449   -3.248241
    169          1           0      -26.870600    2.858687   -2.741875
    170          1           0      -28.279090    2.534326   -1.658703
 ---------------------------------------------------------------------

 Alpha virt. eigenvalues --    0.48995   0.49094   0.49179   0.49378   0.49481
 Alpha virt. eigenvalues --    0.49530   0.49602   0.49720   0.49794   0.49970
 Alpha virt. eigenvalues --    0.49986   0.50092   0.50257   0.50364   0.50518

  Beta  occ. eigenvalues --  -18.88457 -18.88396 -18.88342 -18.88315 -18.88274
  Beta  occ. eigenvalues --  -18.88226 -18.88084 -10.04144 -10.04087 -10.04035
  Beta  occ. eigenvalues --  -10.04005 -10.03973 -10.03922 -10.03859 -10.03776
  Beta  occ. eigenvalues --  -10.03762 -10.03706 -10.03681 -10.03634 -10.03594
  Beta  occ. eigenvalues --  -10.03486  -9.99321  -9.99267  -9.99234  -9.99208
  Beta  occ. eigenvalues --   -9.99155  -9.99140  -9.99090  -9.99074  -9.99049
  Beta  occ. eigenvalues --   -9.99048  -9.99022  -9.99020  -9.99003  -9.98976
  Beta  occ. eigenvalues --   -9.98966  -9.98936  -9.98932  -9.98900  -9.98899
  Beta  occ. eigenvalues --   -9.98886  -9.98854  -9.98812  -9.98798  -9.98765
  Beta  occ. eigenvalues --   -9.98733  -9.98598  -9.98568  -9.98362  -9.98323
  Beta  occ. eigenvalues --   -9.98305  -9.98257  -9.98224  -9.98214  -9.98198
  Beta  occ. eigenvalues --   -9.98180  -9.98152  -9.98112  -9.98112  -9.98093
  Beta  occ. eigenvalues --   -9.98077  -9.98075  -9.98074  -9.98073  -9.98063
  Beta  occ. eigenvalues --   -9.98056  -9.98040  -9.98040  -9.98025  -9.98003
  Beta  occ. eigenvalues --   -9.97998  -9.97990  -9.97984  -9.97964  -9.97948
  Beta  occ. eigenvalues --   -9.97945  -9.97942  -9.97936  -9.97917  -9.97900
  Beta  occ. eigenvalues --   -9.97858  -9.97835  -9.97820  -9.97807  -9.97803
  Beta  occ. eigenvalues --   -9.97769  -9.97768  -9.97728  -9.97714  -9.97690
  Beta  occ. eigenvalues --   -9.97679  -9.97621  -9.97570  -9.97535  -9.97513
  Beta  occ. eigenvalues --   -9.97509  -9.97466  -9.97330  -1.06444  -1.06373
  Beta  occ. eigenvalues --   -1.06320  -1.06292  -1.06254  -1.06208  -1.06071
  Beta  occ. eigenvalues --   -0.87658  -0.87555  -0.87426  -0.87258  -0.87050
  Beta  occ. eigenvalues --   -0.86801  -0.86473  -0.86171  -0.85818  -0.85428
  Beta  occ. eigenvalues --   -0.85020  -0.84619  -0.84268  -0.84009  -0.81215
  Beta  occ. eigenvalues --   -0.80776  -0.80183  -0.79497  -0.78753  -0.77991
  Beta  occ. eigenvalues --   -0.77357  -0.76476  -0.76424  -0.76370  -0.76329
  Beta  occ. eigenvalues --   -0.76282  -0.76216  -0.76090  -0.75791  -0.75354
  Beta  occ. eigenvalues --   -0.75293  -0.75217  -0.75121  -0.75063  -0.75035
  Beta  occ. eigenvalues --   -0.74811  -0.74699  -0.74201  -0.73514  -0.72974
  Beta  occ. eigenvalues --   -0.72643  -0.72433  -0.71451  -0.71378  -0.71220
  Beta  occ. eigenvalues --   -0.70955  -0.70552  -0.70008  -0.69467  -0.66696
  Beta  occ. eigenvalues --   -0.65979  -0.65097  -0.64233  -0.63843  -0.63661
  Beta  occ. eigenvalues --   -0.63547  -0.63317  -0.62915  -0.62879  -0.62589
  Beta  occ. eigenvalues --   -0.62207  -0.62046  -0.61648  -0.61582  -0.61221
  Beta  occ. eigenvalues --   -0.60800  -0.60606  -0.60417  -0.60148  -0.60125
  Beta  occ. eigenvalues --   -0.59921  -0.59653  -0.59546  -0.59301  -0.59096
  Beta  occ. eigenvalues --   -0.58945  -0.58815  -0.56515  -0.56413  -0.56297
  Beta  occ. eigenvalues --   -0.56148  -0.55981  -0.55807  -0.55620  -0.53651
  Beta  occ. eigenvalues --   -0.53399  -0.53088  -0.52819  -0.52736  -0.52614
  Beta  occ. eigenvalues --   -0.52480  -0.52202  -0.51850  -0.51729  -0.51377
  Beta  occ. eigenvalues --   -0.50930  -0.50750  -0.50563  -0.50079  -0.50005
  Beta  occ. eigenvalues --   -0.49903  -0.49842  -0.49746  -0.49715  -0.49678
  Beta  occ. eigenvalues --   -0.49651  -0.49604  -0.49497  -0.49428  -0.49234
  Beta  occ. eigenvalues --   -0.48995  -0.48807  -0.48111  -0.47862  -0.47861
  Beta  occ. eigenvalues --   -0.47775  -0.47656  -0.47608  -0.47542  -0.47044
  Beta  occ. eigenvalues --   -0.47039  -0.46916  -0.46808  -0.46640  -0.46500
  Beta  occ. eigenvalues --   -0.46333  -0.46211  -0.46094  -0.46001  -0.45937
  Beta  occ. eigenvalues --   -0.45825  -0.45756  -0.45562  -0.44871  -0.44473
  Beta  occ. eigenvalues --   -0.44434  -0.44390  -0.44362  -0.44297  -0.44275
  Beta  occ. eigenvalues --   -0.44221  -0.44074  -0.43992  -0.43898  -0.43858
  Beta  occ. eigenvalues --   -0.43713  -0.43627  -0.43506  -0.43351  -0.42696
  Beta  occ. eigenvalues --   -0.42661  -0.42419  -0.42058  -0.41980  -0.41899
  Beta  occ. eigenvalues --   -0.41779  -0.41572  -0.41442  -0.41101  -0.40737
  Beta  occ. eigenvalues --   -0.40607  -0.40423  -0.40319  -0.40107  -0.40018
  Beta  occ. eigenvalues --   -0.39919  -0.39763  -0.39710  -0.39557  -0.39130
  Beta  occ. eigenvalues --   -0.38984  -0.38969  -0.38826  -0.38774  -0.38704
  Beta  occ. eigenvalues --   -0.38623  -0.38571  -0.38494  -0.38485  -0.38238
  Beta  occ. eigenvalues --   -0.38145  -0.38092  -0.37730  -0.36749  -0.36704
  Beta  occ. eigenvalues --   -0.36603  -0.36574  -0.36484  -0.36360  -0.36333
  Beta  occ. eigenvalues --   -0.35963  -0.35929  -0.35850  -0.35824  -0.35724
  Beta  occ. eigenvalues --   -0.35628  -0.35556  -0.35503  -0.35291  -0.35157
  Beta  occ. eigenvalues --   -0.35064  -0.34879  -0.34785  -0.34634  -0.32959
  Beta  occ. eigenvalues --   -0.32719  -0.32316  -0.31840  -0.31234  -0.30569
  Beta  occ. eigenvalues --   -0.29932  -0.29679  -0.29613  -0.29574  -0.29546
  Beta  occ. eigenvalues --   -0.29514  -0.29430  -0.29220  -0.29105  -0.28565
  Beta  occ. eigenvalues --   -0.28091  -0.27845  -0.27712  -0.27619  -0.27532
  Beta  occ. eigenvalues --   -0.26514  -0.26280  -0.25885  -0.25359  -0.24764
  Beta  occ. eigenvalues --   -0.24250  -0.23905
  Beta virt. eigenvalues --   -0.01588  -0.01144  -0.00474   0.00349   0.01278
  Beta virt. eigenvalues --    0.02260   0.03208   0.03345   0.03389   0.03435
  Beta virt. eigenvalues --    0.03476   0.03487   0.03579   0.03953   0.04041

 Mulliken charges and spin densities:
               1          2
     1  C    0.021498   0.000000
     2  C    0.025905  -0.000000
     3  C    0.034431  -0.000000
     4  C    0.021105  -0.000000
     5  C    0.007818   0.000000
     6  C    0.026923  -0.000000
     7  C   -0.007324  -0.000000
     8  C    0.026958  -0.000000
     9  C    0.006457  -0.000000
    10  C    0.026184   0.000000
    11  C   -0.030560  -0.000000
    12  C    0.098339   0.000000
    13  O   -0.237689  -0.000000
    14  C    0.066172   0.000000
    15  C    0.027203  -0.000000
    16  C    0.008255   0.000000
    17  C    0.042175   0.000000
    18  C    0.035691   0.000000
    19  C    0.014312   0.000000
    20  C    0.006004  -0.000000
    21  C   -0.007862  -0.000000
    22  C    0.024750   0.000000
    23  C    0.006662  -0.000000
    24  C    0.026888   0.000000
    25  C   -0.029880  -0.000000
    26  C    0.097396  -0.000000
    27  O   -0.238519  -0.000000
    28  C    0.066126   0.000000
    29  C    0.027541   0.000000
    30  C    0.007924  -0.000000
    31  C    0.042410   0.000000
    32  C    0.036056  -0.000000
    33  C    0.014329   0.000000
    34  C    0.005862  -0.000000
    35  C   -0.004670   0.000000
    36  C    0.023024  -0.000000
    37  C    0.006214  -0.000000
    38  C    0.029640   0.000000
    39  C   -0.031308   0.000000
    40  C    0.095530  -0.000000
    41  O   -0.238539   0.000000
    42  C    0.066246  -0.000000
    43  C    0.024384   0.000000
    44  C    0.008466  -0.000000
    45  C    0.043921   0.000000
    46  C    0.033177  -0.000000
    47  C    0.015933   0.000000
    48  C    0.006133   0.000000
    49  C   -0.008033   0.000000
    50  C    0.024581   0.000000
    51  C    0.006945  -0.000000
    52  C    0.027121   0.000000
    53  C   -0.030089  -0.000000
    54  C    0.097077   0.000000
    55  O   -0.238651  -0.000000
    56  C    0.066005   0.000000
    57  C    0.024810  -0.000000
    58  C    0.006606   0.000000
    59  C    0.015858  -0.000000
    60  C    0.033081   0.000000
    61  C    0.043843  -0.000000
    62  C    0.008318   0.000000
    63  C   -0.008049  -0.000000
    64  C    0.024652   0.000000
    65  C    0.006726  -0.000000
    66  C    0.027054   0.000000
    67  C   -0.029716  -0.000000
    68  C    0.097051   0.000000
    69  O   -0.238586  -0.000000
    70  C    0.065980   0.000000
    71  C    0.024674   0.000000
    72  C    0.006067   0.000000
    73  C    0.043371  -0.000000
    74  C    0.033124   0.000000
    75  C    0.016172   0.000000
    76  C    0.009026  -0.000000
    77  C   -0.008121  -0.000000
    78  C    0.024597   0.000000
    79  C    0.007110  -0.000000
    80  C    0.026872   0.000000
    81  C   -0.029946  -0.000000
    82  C    0.097257  -0.000000
    83  O   -0.238626  -0.000000
    84  C    0.066002   0.000000
    85  C    0.024555  -0.000000
    86  C    0.008354   0.000000
    87  C    0.045269  -0.000000
    88  C    0.034438  -0.000000
    89  C    0.016925   0.000000
    90  C    0.006849   0.000000
    91  C   -0.018994   0.000000
    92  C    0.016654  -0.000000
    93  C    0.030022   0.000000
    94  C    0.026940  -0.000000
    95  C   -0.023992   0.000000
    96  C    0.090224  -0.000000
    97  O   -0.236412  -0.000000
    98  C    0.063043  -0.000000
    99  H   -0.023436  -0.000000
   100  H   -0.022507   0.000000
   101  H   -0.034461  -0.000000
   102  H   -0.029028   0.000000
   103  H   -0.021847  -0.000000
   104  H   -0.029983   0.000000
   105  H   -0.033744   0.000000
   106  H   -0.029566   0.000000
   107  H    0.042653   0.000000
   108  H    0.048126  -0.000000
   109  H    0.045656  -0.000000
   110  H   -0.029641   0.000000
   111  H   -0.034229   0.000000
   112  H   -0.029037   0.000000
   113  H   -0.031734  -0.000000
   114  H   -0.030688   0.000000
   115  H   -0.033667   0.000000
   116  H   -0.029035   0.000000
   117  H    0.048501   0.000000
   118  H    0.046222  -0.000000
   119  H    0.043005  -0.000000
   120  H   -0.029623   0.000000
   121  H   -0.034333   0.000000
   122  H   -0.029282   0.000000
   123  H   -0.031617  -0.000000
   124  H   -0.030313   0.000000
   125  H   -0.033131  -0.000000
   126  H   -0.028087  -0.000000
   127  H    0.048306  -0.000000
   128  H    0.047096   0.000000
   129  H    0.042463  -0.000000
   130  H   -0.030171  -0.000000
   131  H   -0.034134   0.000000
   132  H   -0.029013   0.000000
   133  H   -0.031800   0.000000
   134  H   -0.029206  -0.000000
   135  H   -0.032928  -0.000000
   136  H   -0.028586  -0.000000
   137  H    0.048604  -0.000000
   138  H    0.042985   0.000000
   139  H    0.046255  -0.000000
   140  H   -0.031950   0.000000
   141  H   -0.029236  -0.000000
   142  H   -0.033848   0.000000
   143  H   -0.029426  -0.000000
   144  H   -0.029291  -0.000000
   145  H   -0.032977   0.000000
   146  H   -0.028605  -0.000000
   147  H    0.048696  -0.000000
   148  H    0.046449   0.000000
   149  H    0.042782  -0.000000
   150  H   -0.032532   0.000000
   151  H   -0.034914   0.000000
   152  H   -0.027989   0.000000
   153  H   -0.028753   0.000000
   154  H   -0.029218  -0.000000
   155  H   -0.032883  -0.000000
   156  H   -0.028656  -0.000000
   157  H    0.048604  -0.000000
   158  H    0.045965  -0.000000
   159  H    0.043285  -0.000000
   160  H   -0.029521   0.000000
   161  H   -0.034061  -0.000000
   162  H   -0.029324   0.000000
   163  H   -0.031624  -0.000000
   164  H   -0.028035   0.000000
   165  H   -0.024695   0.000000
   166  H   -0.021526  -0.000000
   167  H   -0.020797   0.000000
   168  H    0.043517   0.000000
   169  H    0.049791   0.000000
   170  H    0.043993   0.000000
 Sum of Mulliken charges =  -0.00000   0.00000

 Dipole moment (field-independent basis, Debye):
    X=             -7.5124    Y=              1.8256    Z=              1.7086  Tot=              7.9176
 Quadrupole moment (field-independent basis, Debye-Ang):
   XX=           -496.2774   YY=           -512.1320   ZZ=           -544.9230
   XY=            -73.5838   XZ=              6.4025   YZ=             -1.5914

 Normal termination of Gaussian 16 at Fri Jul 24 19:57:38 2020.
