 Gaussian 16, Revision A.03,
 Gaussian 16:  EM64L-G16RevA.03 25-Dec-2016

 ---------------------------------------------------------------
 #P uLC-wPBE/cc-pVDZ iop(3/107=0253900000, 3/108=0253900000) opt
 ---------------------------------------------------------------

 -----------------
 H17 C40 S5 N10 F5
 -----------------
 Symbolic Z-matrix:
 Charge =  0 Multiplicity = 1

 SCF Done:  E(ULC-wPBE) =  -4569.47650981     A.U. after   16 cycles
 SCF Done:  E(ULC-wPBE) =  -4569.54885078     A.U. after   13 cycles
 SCF Done:  E(ULC-wPBE) =  -4569.60027178     A.U. after   15 cycles
 SCF Done:  E(ULC-wPBE) =  -4569.60299789     A.U. after   14 cycles
 SCF Done:  E(ULC-wPBE) =  -4569.60357516     A.U. after   14 cycles
 SCF Done:  E(ULC-wPBE) =  -4569.60368576     A.U. after   13 cycles
 SCF Done:  E(ULC-wPBE) =  -4569.60380295     A.U. after   12 cycles
 SCF Done:  E(ULC-wPBE) =  -4569.60382247     A.U. after   12 cycles
 SCF Done:  E(ULC-wPBE) =  -4569.60382934     A.U. after   11 cycles
 SCF Done:  E(ULC-wPBE) =  -4569.60383050     A.U. after   10 cycles
 SCF Done:  E(ULC-wPBE) =  -4569.60383091     A.U. after    8 cycles
 SCF Done:  E(ULC-wPBE) =  -4569.60383091     A.U. after    7 cycles
 SCF Done:  E(ULC-wPBE) =  -4569.60383090     A.U. after    7 cycles
 Optimization completed.
    -- Stationary point found.

                         Standard orientation:
 ---------------------------------------------------------------------
 Center     Atomic      Atomic             Coordinates (Angstroms)
 Number     Number       Type             X           Y           Z
 ---------------------------------------------------------------------
      1          6           0      -18.192212   -2.879014   -1.450062
      2          6           0      -17.663432   -3.580687   -0.367379
      3          7           0      -16.436629   -3.357476    0.113981
      4          6           0      -15.730091   -2.403150   -0.513270
      5          7           0      -16.134052   -1.663202   -1.563595
      6          6           0      -17.363724   -1.912489   -2.019505
      7          6           0      -14.376276   -2.119054   -0.024461
      8          6           0      -13.660181   -2.675803    1.015320
      9          9           0      -14.124845   -3.637516    1.816607
     10          6           0      -12.359636   -2.137793    1.191809
     11          6           0      -12.086588   -1.153998    0.266266
     12         16           0      -13.420201   -0.904219   -0.815638
     13          6           0      -10.850099   -0.371626    0.134214
     14          6           0      -10.826991    0.954165   -0.324635
     15          7           0       -9.710193    1.671255   -0.444567
     16          6           0       -8.572682    1.054984   -0.084626
     17          7           0       -8.463476   -0.208085    0.370874
     18          6           0       -9.594281   -0.903088    0.466705
     19          6           0       -7.318991    1.804922   -0.188649
     20          6           0       -7.078053    3.096814   -0.611268
     21          9           0       -8.025867    3.935461   -1.035492
     22          6           0       -5.714992    3.485966   -0.574313
     23          6           0       -4.907830    2.468017   -0.114258
     24         16           0       -5.826321    1.048689    0.277371
     25          6           0       -3.449545    2.496283    0.061123
     26          6           0       -2.762918    3.672614    0.399495
     27          7           0       -1.440448    3.734921    0.546776
     28          6           0       -0.772324    2.582930    0.368753
     29          7           0       -1.315190    1.390578    0.056924
     30          6           0       -2.636769    1.363509   -0.098637
     31          6           0        0.683690    2.599099    0.523425
     32          6           0        1.541561    3.633359    0.840066
     33          9           0        1.148003    4.885607    1.083144
     34          6           0        2.909985    3.267521    0.902758
     35          6           0        3.091700    1.929240    0.627602
     36         16           0        1.587429    1.134767    0.285865
     37          6           0        4.360491    1.189333    0.597356
     38          6           0        4.467534   -0.164613    0.949699
     39          7           0        5.615224   -0.841093    0.928357
     40          6           0        6.702531   -0.146505    0.554682
     41          7           0        6.730098    1.151984    0.195654
     42          6           0        5.566411    1.796737    0.214021
     43          6           0        7.990009   -0.842619    0.525808
     44          6           0        8.310052   -2.151036    0.828479
     45          9           0        7.422347   -3.067807    1.220116
     46          6           0        9.683345   -2.472405    0.682918
     47          6           0       10.418420   -1.385242    0.261819
     48         16           0        9.422846    0.021359    0.057844
     49          6           0       11.863446   -1.331438    0.002259
     50          6           0       12.436400   -0.500842   -0.972871
     51          7           0       13.744803   -0.455014   -1.210815
     52          6           0       14.519617   -1.268806   -0.467337
     53          7           0       14.091391   -2.106881    0.492581
     54          6           0       12.778664   -2.119367    0.716892
     55          6           0       15.955656   -1.216773   -0.747133
     56          6           0       17.004386   -1.907821   -0.172796
     57          9           0       16.864258   -2.805544    0.806739
     58          6           0       18.282297   -1.591914   -0.708197
     59          6           0       18.179734   -0.648942   -1.698382
     60         16           0       16.558457   -0.149190   -1.979741
     61          1           0      -19.199409   -3.075282   -1.831231
     62          1           0      -18.246951   -4.361230    0.143036
     63          1           0      -17.695158   -1.309540   -2.877663
     64          1           0      -11.684882   -2.455741    1.991057
     65          1           0      -11.762506    1.464847   -0.600162
     66          1           0       -9.500753   -1.942657    0.813881
     67          1           0       -5.364188    4.466914   -0.905563
     68          1           0       -3.314507    4.608838    0.571810
     69          1           0       -3.075921    0.392664   -0.374549
     70          1           0        3.704569    3.968888    1.170679
     71          1           0        3.579414   -0.727665    1.275631
     72          1           0        5.586247    2.849495   -0.104467
     73          1           0       10.084895   -3.474160    0.856866
     74          1           0       11.804049    0.149665   -1.596440
     75          1           0       12.430601   -2.785160    1.520888
     76          1           0       19.212066   -2.050927   -0.362867
     77          1           0       18.991460   -0.215008   -2.287480
 ---------------------------------------------------------------------

 The electronic state is 1-A.
 Alpha  occ. eigenvalues --  -88.26036 -88.25990 -88.25873 -88.25795 -88.25025
 Alpha  occ. eigenvalues --  -24.43908 -24.43907 -24.43736 -24.43729 -24.43098
 Alpha  occ. eigenvalues --  -14.16240 -14.16234 -14.16137 -14.15925 -14.15877
 Alpha  occ. eigenvalues --  -14.15804 -14.15779 -14.15669 -14.15461 -14.15375
 Alpha  occ. eigenvalues --  -10.14191 -10.14179 -10.14003 -10.14002 -10.13628
 Alpha  occ. eigenvalues --  -10.13599 -10.13510 -10.13327 -10.13266 -10.13082
 Alpha  occ. eigenvalues --  -10.10948 -10.10939 -10.10887 -10.10850 -10.10766
 Alpha  occ. eigenvalues --  -10.10717 -10.10513 -10.10492 -10.10398 -10.10392
 Alpha  occ. eigenvalues --  -10.10376 -10.10357 -10.10228 -10.10154 -10.08731
 Alpha  occ. eigenvalues --  -10.08684 -10.08661 -10.08629 -10.08627 -10.08456
 Alpha  occ. eigenvalues --  -10.08435 -10.08355 -10.08259 -10.07673 -10.06882
 Alpha  occ. eigenvalues --  -10.06727 -10.06691 -10.06608 -10.06459 -10.05700
 Alpha  occ. eigenvalues --   -7.86437  -7.86391  -7.86271  -7.86197  -7.85436
 Alpha  occ. eigenvalues --   -5.88384  -5.88337  -5.88217  -5.88144  -5.87898
 Alpha  occ. eigenvalues --   -5.87852  -5.87732  -5.87659  -5.87465  -5.87419
 Alpha  occ. eigenvalues --   -5.87373  -5.87301  -5.87225  -5.86885  -5.86485
 Alpha  occ. eigenvalues --   -1.28090  -1.28085  -1.27908  -1.27908  -1.27237
 Alpha  occ. eigenvalues --   -1.07290  -1.07250  -1.07161  -1.06757  -1.06730
 Alpha  occ. eigenvalues --   -0.98733  -0.98498  -0.98245  -0.98130  -0.97388
 Alpha  occ. eigenvalues --   -0.97361  -0.97278  -0.97105  -0.96907  -0.96761
 Alpha  occ. eigenvalues --   -0.91813  -0.91170  -0.90348  -0.89470  -0.88454
 Alpha  occ. eigenvalues --   -0.85378  -0.84424  -0.83715  -0.83401  -0.83348
 Alpha  occ. eigenvalues --   -0.82869  -0.82242  -0.81850  -0.80861  -0.79704
 Alpha  occ. eigenvalues --   -0.77107  -0.76094  -0.75610  -0.75496  -0.75073
 Alpha  occ. eigenvalues --   -0.74696  -0.74662  -0.74397  -0.73197  -0.72690
 Alpha  occ. eigenvalues --   -0.67714  -0.67553  -0.67121  -0.66985  -0.66844
 Alpha  occ. eigenvalues --   -0.66494  -0.66379  -0.65989  -0.65862  -0.65703
 Alpha  occ. eigenvalues --   -0.64501  -0.64236  -0.63920  -0.63697  -0.63266
 Alpha  occ. eigenvalues --   -0.61473  -0.61305  -0.61263  -0.60817  -0.60296
 Alpha  occ. eigenvalues --   -0.58823  -0.58177  -0.57489  -0.57052  -0.56714
 Alpha  occ. eigenvalues --   -0.56187  -0.55990  -0.55777  -0.55685  -0.55282
 Alpha  occ. eigenvalues --   -0.55172  -0.55096  -0.54850  -0.54431  -0.54152
 Alpha  occ. eigenvalues --   -0.53793  -0.53675  -0.53555  -0.53272  -0.53215
 Alpha  occ. eigenvalues --   -0.53067  -0.52913  -0.52582  -0.52393  -0.52189
 Alpha  occ. eigenvalues --   -0.51692  -0.50857  -0.50518  -0.50415  -0.50246
 Alpha  occ. eigenvalues --   -0.50074  -0.49380  -0.49279  -0.49091  -0.48906
 Alpha  occ. eigenvalues --   -0.48177  -0.48122  -0.47868  -0.47532  -0.47130
 Alpha  occ. eigenvalues --   -0.46654  -0.46385  -0.46265  -0.45957  -0.45811
 Alpha  occ. eigenvalues --   -0.45041  -0.44006  -0.43806  -0.43773  -0.43662
 Alpha  occ. eigenvalues --   -0.42776  -0.42432  -0.41637  -0.41568  -0.41536
 Alpha  occ. eigenvalues --   -0.41462  -0.41101  -0.41083  -0.40336  -0.39696
 Alpha  occ. eigenvalues --   -0.39601  -0.39496  -0.39127  -0.39064  -0.38940
 Alpha  occ. eigenvalues --   -0.37789  -0.34854  -0.34285  -0.34218  -0.34144
 Alpha  occ. eigenvalues --   -0.33989  -0.33839  -0.33676  -0.33556  -0.33497
 Alpha  occ. eigenvalues --   -0.33237  -0.32877  -0.32058  -0.30700  -0.29291
 Alpha  occ. eigenvalues --   -0.28381
 Alpha virt. eigenvalues --   -0.03988  -0.02817  -0.01274   0.00374   0.01133
 Alpha virt. eigenvalues --    0.01196   0.01256   0.01601   0.01709   0.01957
 Alpha virt. eigenvalues --    0.04431   0.05915   0.07296   0.08546   0.09008

  Beta  occ. eigenvalues --  -88.26036 -88.25990 -88.25873 -88.25795 -88.25025
  Beta  occ. eigenvalues --  -24.43908 -24.43907 -24.43736 -24.43729 -24.43098
  Beta  occ. eigenvalues --  -14.16240 -14.16234 -14.16137 -14.15925 -14.15877
  Beta  occ. eigenvalues --  -14.15804 -14.15779 -14.15669 -14.15461 -14.15375
  Beta  occ. eigenvalues --  -10.14191 -10.14179 -10.14003 -10.14002 -10.13628
  Beta  occ. eigenvalues --  -10.13599 -10.13510 -10.13327 -10.13266 -10.13082
  Beta  occ. eigenvalues --  -10.10948 -10.10939 -10.10887 -10.10850 -10.10766
  Beta  occ. eigenvalues --  -10.10717 -10.10513 -10.10492 -10.10398 -10.10392
  Beta  occ. eigenvalues --  -10.10376 -10.10357 -10.10228 -10.10154 -10.08731
  Beta  occ. eigenvalues --  -10.08684 -10.08661 -10.08629 -10.08627 -10.08456
  Beta  occ. eigenvalues --  -10.08435 -10.08355 -10.08259 -10.07673 -10.06882
  Beta  occ. eigenvalues --  -10.06727 -10.06691 -10.06608 -10.06459 -10.05700
  Beta  occ. eigenvalues --   -7.86437  -7.86391  -7.86271  -7.86197  -7.85436
  Beta  occ. eigenvalues --   -5.88384  -5.88337  -5.88217  -5.88144  -5.87898
  Beta  occ. eigenvalues --   -5.87852  -5.87732  -5.87659  -5.87465  -5.87419
  Beta  occ. eigenvalues --   -5.87373  -5.87301  -5.87225  -5.86885  -5.86485
  Beta  occ. eigenvalues --   -1.28090  -1.28085  -1.27908  -1.27908  -1.27237
  Beta  occ. eigenvalues --   -1.07290  -1.07250  -1.07161  -1.06757  -1.06730
  Beta  occ. eigenvalues --   -0.98733  -0.98498  -0.98245  -0.98130  -0.97388
  Beta  occ. eigenvalues --   -0.97361  -0.97278  -0.97105  -0.96907  -0.96761
  Beta  occ. eigenvalues --   -0.91813  -0.91170  -0.90348  -0.89470  -0.88454
  Beta  occ. eigenvalues --   -0.85378  -0.84424  -0.83715  -0.83401  -0.83348
  Beta  occ. eigenvalues --   -0.82869  -0.82242  -0.81850  -0.80861  -0.79704
  Beta  occ. eigenvalues --   -0.77107  -0.76094  -0.75610  -0.75496  -0.75073
  Beta  occ. eigenvalues --   -0.74696  -0.74662  -0.74397  -0.73197  -0.72690
  Beta  occ. eigenvalues --   -0.67714  -0.67553  -0.67121  -0.66985  -0.66844
  Beta  occ. eigenvalues --   -0.66494  -0.66379  -0.65989  -0.65862  -0.65703
  Beta  occ. eigenvalues --   -0.64501  -0.64236  -0.63920  -0.63697  -0.63266
  Beta  occ. eigenvalues --   -0.61473  -0.61305  -0.61263  -0.60817  -0.60296
  Beta  occ. eigenvalues --   -0.58823  -0.58177  -0.57489  -0.57052  -0.56714
  Beta  occ. eigenvalues --   -0.56187  -0.55990  -0.55777  -0.55685  -0.55282
  Beta  occ. eigenvalues --   -0.55172  -0.55096  -0.54850  -0.54431  -0.54152
  Beta  occ. eigenvalues --   -0.53793  -0.53675  -0.53555  -0.53272  -0.53215
  Beta  occ. eigenvalues --   -0.53067  -0.52913  -0.52582  -0.52393  -0.52189
  Beta  occ. eigenvalues --   -0.51692  -0.50857  -0.50518  -0.50415  -0.50246
  Beta  occ. eigenvalues --   -0.50074  -0.49380  -0.49279  -0.49091  -0.48906
  Beta  occ. eigenvalues --   -0.48177  -0.48122  -0.47868  -0.47532  -0.47130
  Beta  occ. eigenvalues --   -0.46654  -0.46385  -0.46265  -0.45957  -0.45811
  Beta  occ. eigenvalues --   -0.45041  -0.44006  -0.43806  -0.43773  -0.43662
  Beta  occ. eigenvalues --   -0.42776  -0.42432  -0.41637  -0.41568  -0.41536
  Beta  occ. eigenvalues --   -0.41462  -0.41101  -0.41083  -0.40336  -0.39696
  Beta  occ. eigenvalues --   -0.39601  -0.39496  -0.39127  -0.39064  -0.38940
  Beta  occ. eigenvalues --   -0.37789  -0.34854  -0.34285  -0.34218  -0.34144
  Beta  occ. eigenvalues --   -0.33989  -0.33839  -0.33676  -0.33556  -0.33497
  Beta  occ. eigenvalues --   -0.33237  -0.32877  -0.32058  -0.30700  -0.29291
  Beta  occ. eigenvalues --   -0.28381
  Beta virt. eigenvalues --   -0.03988  -0.02817  -0.01274   0.00374   0.01133
  Beta virt. eigenvalues --    0.01196   0.01256   0.01601   0.01709   0.01957
  Beta virt. eigenvalues --    0.04431   0.05915   0.07296   0.08546   0.09008

 Mulliken charges and spin densities:
               1          2
     1  C   -0.069028  -0.000000
     2  C    0.115100   0.000000
     3  N   -0.184324   0.000000
     4  C    0.205062  -0.000000
     5  N   -0.207830  -0.000000
     6  C    0.121487   0.000000
     7  C   -0.200367   0.000000
     8  C    0.137234   0.000000
     9  F   -0.093962  -0.000000
    10  C    0.031156   0.000000
    11  C   -0.163512  -0.000000
    12  S    0.218094   0.000000
    13  C   -0.067025  -0.000000
    14  C    0.129435  -0.000000
    15  N   -0.178928   0.000000
    16  C    0.207768  -0.000000
    17  N   -0.203095  -0.000000
    18  C    0.138789   0.000000
    19  C   -0.202338   0.000000
    20  C    0.138216  -0.000000
    21  F   -0.092704   0.000000
    22  C    0.032820  -0.000000
    23  C   -0.162768   0.000000
    24  S    0.218316   0.000000
    25  C   -0.067801  -0.000000
    26  C    0.130967  -0.000000
    27  N   -0.179349  -0.000000
    28  C    0.208168   0.000000
    29  N   -0.202275   0.000000
    30  C    0.137595  -0.000000
    31  C   -0.202855   0.000000
    32  C    0.137926  -0.000000
    33  F   -0.093232   0.000000
    34  C    0.032602   0.000000
    35  C   -0.162717  -0.000000
    36  S    0.220581   0.000000
    37  C   -0.068446   0.000000
    38  C    0.129589  -0.000000
    39  N   -0.178814   0.000000
    40  C    0.208229   0.000000
    41  N   -0.202681  -0.000000
    42  C    0.138971  -0.000000
    43  C   -0.203351   0.000000
    44  C    0.138271  -0.000000
    45  F   -0.093033   0.000000
    46  C    0.032694   0.000000
    47  C   -0.161332   0.000000
    48  S    0.217497  -0.000000
    49  C   -0.069020  -0.000000
    50  C    0.135134  -0.000000
    51  N   -0.201435   0.000000
    52  C    0.215342  -0.000000
    53  N   -0.179664   0.000000
    54  C    0.128914  -0.000000
    55  C   -0.211593   0.000000
    56  C    0.120978   0.000000
    57  F   -0.098080  -0.000000
    58  C    0.055208  -0.000000
    59  C   -0.122937   0.000000
    60  S    0.211784   0.000000
    61  H    0.005997  -0.000000
    62  H    0.017417  -0.000000
    63  H    0.018566   0.000000
    64  H    0.002841  -0.000000
    65  H    0.019632  -0.000000
    66  H    0.014256   0.000000
    67  H    0.004317  -0.000000
    68  H    0.013559   0.000000
    69  H    0.020759   0.000000
    70  H    0.003790   0.000000
    71  H    0.019588   0.000000
    72  H    0.014045   0.000000
    73  H    0.004083  -0.000000
    74  H    0.019192   0.000000
    75  H    0.012453   0.000000
    76  H    0.006018   0.000000
    77  H    0.034054   0.000000
 Sum of Mulliken charges =  -0.00000   0.00000

 Dipole moment (field-independent basis, Debye):
    X=             -4.1823    Y=             -0.1084    Z=             -1.4592  Tot=              4.4309
 Quadrupole moment (field-independent basis, Debye-Ang):
   XX=           -248.8893   YY=           -365.6817   ZZ=           -365.8623
   XY=             26.8852   XZ=              6.2127   YZ=              1.7685

 Normal termination of Gaussian 16 at Sat Jul 25 03:30:57 2020.
