 Gaussian 16, Revision A.03,
 Gaussian 16:  EM64L-G16RevA.03 25-Dec-2016

 ---------------------------------------------------------------
 #P uLC-wPBE/cc-pVDZ iop(3/107=0407400000, 3/108=0407400000) opt
 ---------------------------------------------------------------

 -------------------
 H20 C30 S3 N3 O3 F3
 -------------------
 Symbolic Z-matrix:
 Charge =  0 Multiplicity = 1

 SCF Done:  E(ULC-wPBE) =  -3037.59442328     A.U. after   18 cycles
 SCF Done:  E(ULC-wPBE) =  -3037.66276076     A.U. after   14 cycles
 SCF Done:  E(ULC-wPBE) =  -3037.71448641     A.U. after   16 cycles
 SCF Done:  E(ULC-wPBE) =  -3037.71723645     A.U. after   14 cycles
 SCF Done:  E(ULC-wPBE) =  -3037.71801925     A.U. after   13 cycles
 SCF Done:  E(ULC-wPBE) =  -3037.71884972     A.U. after   14 cycles
 SCF Done:  E(ULC-wPBE) =  -3037.71950620     A.U. after   13 cycles
 SCF Done:  E(ULC-wPBE) =  -3037.71988274     A.U. after   14 cycles
 SCF Done:  E(ULC-wPBE) =  -3037.72009411     A.U. after   12 cycles
 SCF Done:  E(ULC-wPBE) =  -3037.72020226     A.U. after   13 cycles
 SCF Done:  E(ULC-wPBE) =  -3037.72033749     A.U. after   11 cycles
 SCF Done:  E(ULC-wPBE) =  -3037.72033841     A.U. after   11 cycles
 SCF Done:  E(ULC-wPBE) =  -3037.72033878     A.U. after   10 cycles
 SCF Done:  E(ULC-wPBE) =  -3037.72033889     A.U. after   10 cycles
 SCF Done:  E(ULC-wPBE) =  -3037.72033911     A.U. after   10 cycles
 SCF Done:  E(ULC-wPBE) =  -3037.72033924     A.U. after    8 cycles
 SCF Done:  E(ULC-wPBE) =  -3037.72033929     A.U. after    8 cycles
 SCF Done:  E(ULC-wPBE) =  -3037.72033936     A.U. after    6 cycles
 SCF Done:  E(ULC-wPBE) =  -3037.72033935     A.U. after    6 cycles
 SCF Done:  E(ULC-wPBE) =  -3037.72033935     A.U. after    7 cycles
 Optimization completed.
    -- Stationary point found.

                         Standard orientation:
 ---------------------------------------------------------------------
 Center     Atomic      Atomic             Coordinates (Angstroms)
 Number     Number       Type             X           Y           Z
 ---------------------------------------------------------------------
      1          6           0       10.958567    1.253508    0.884634
      2          6           0       10.710883   -0.089324    1.096177
      3          6           0        9.448342   -0.581927    0.807490
      4          9           0        9.222848   -1.872660    1.044843
      5          6           0        8.420397    0.215054    0.310265
      6          6           0        8.702969    1.581874    0.123685
      7          8           0        7.676731    2.330474   -0.335236
      8          6           0        7.887697    3.705985   -0.554580
      9          6           0        9.964420    2.096461    0.402685
     10          6           0        7.108097   -0.378018   -0.010625
     11          7           0        6.971350   -1.581773   -0.482158
     12          6           0        5.655490   -1.909801   -0.613026
     13          6           0        4.752057   -0.960709   -0.234656
     14         16           0        5.609002    0.433956    0.296825
     15          6           0        3.284759   -1.033245   -0.281925
     16          6           0        2.647330   -2.253888   -0.103213
     17          6           0        1.266870   -2.314486   -0.173357
     18          9           0        0.704802   -3.502611    0.033005
     19          6           0        0.463724   -1.200574   -0.410130
     20          6           0        1.132647    0.029801   -0.560160
     21          8           0        0.337925    1.102050   -0.762412
     22          6           0        0.930900    2.370712   -0.918114
     23          6           0        2.517533    0.111797   -0.506555
     24          6           0       -1.001350   -1.333552   -0.502025
     25          7           0       -1.587723   -2.419395   -0.913384
     26          6           0       -2.942388   -2.308093   -0.830491
     27          6           0       -3.426470   -1.129439   -0.344299
     28         16           0       -2.099466   -0.092384    0.008346
     29          6           0       -4.829238   -0.728785   -0.162711
     30          6           0       -5.784827   -1.685268    0.153886
     31          6           0       -7.105830   -1.299104    0.298970
     32          9           0       -7.980652   -2.246512    0.629901
     33          6           0       -7.537933    0.015867    0.151076
     34          6           0       -6.546974    0.971193   -0.144543
     35          8           0       -6.983165    2.242887   -0.261776
     36          6           0       -6.051866    3.258445   -0.554307
     37          6           0       -5.217257    0.605106   -0.307106
     38          6           0       -8.965947    0.359058    0.290706
     39          7           0       -9.922853   -0.448620   -0.058187
     40          6           0      -11.145477    0.081585    0.242421
     41          6           0      -11.129865    1.303188    0.834444
     42         16           0       -9.516479    1.838445    1.008779
     43          1           0       11.945853    1.662342    1.103148
     44          1           0       11.466120   -0.770730    1.484121
     45          1           0        8.162301    4.225893    0.376240
     46          1           0        6.935575    4.103483   -0.921311
     47          1           0        8.666103    3.877162   -1.313866
     48          1           0       10.181117    3.150870    0.248009
     49          1           0        5.390693   -2.881236   -1.029174
     50          1           0        3.197369   -3.166459    0.118705
     51          1           0        1.583452    2.402765   -1.803952
     52          1           0        1.507781    2.658029   -0.025639
     53          1           0        0.104265    3.075447   -1.055508
     54          1           0        3.017520    1.065760   -0.658449
     55          1           0       -3.563638   -3.134754   -1.173568
     56          1           0       -5.525324   -2.729255    0.319340
     57          1           0       -6.624012    4.191336   -0.589243
     58          1           0       -5.570504    3.093176   -1.530442
     59          1           0       -5.280320    3.335324    0.227345
     60          1           0       -4.470110    1.351190   -0.568580
     61          1           0      -12.043739   -0.483419   -0.003109
     62          1           0      -11.973287    1.913544    1.146798
 ---------------------------------------------------------------------

 The electronic state is 1-A.
 Alpha  occ. eigenvalues --  -88.33446 -88.33222 -88.32518 -24.50612 -24.50551
 Alpha  occ. eigenvalues --  -24.50165 -19.03979 -19.03878 -19.03409 -14.22118
 Alpha  occ. eigenvalues --  -14.21858 -14.21219 -10.22491 -10.22418 -10.22033
 Alpha  occ. eigenvalues --  -10.21439 -10.21327 -10.20953 -10.20252 -10.20083
 Alpha  occ. eigenvalues --  -10.19614 -10.19599 -10.19314 -10.19098 -10.16933
 Alpha  occ. eigenvalues --  -10.16747 -10.16527 -10.16439 -10.15648 -10.15398
 Alpha  occ. eigenvalues --  -10.15387 -10.15367 -10.15207 -10.15020 -10.14874
 Alpha  occ. eigenvalues --  -10.14705 -10.13931 -10.13848 -10.13525 -10.13437
 Alpha  occ. eigenvalues --  -10.13398 -10.13066  -7.94262  -7.94023  -7.93340
 Alpha  occ. eigenvalues --   -5.95731  -5.95495  -5.95208  -5.94969  -5.94841
 Alpha  occ. eigenvalues --   -5.94802  -5.94604  -5.94276  -5.93938  -1.35723
 Alpha  occ. eigenvalues --   -1.35713  -1.35293  -1.23798  -1.23689  -1.23262
 Alpha  occ. eigenvalues --   -1.12695  -1.12446  -1.11640  -1.04210  -1.03647
 Alpha  occ. eigenvalues --   -1.03326  -0.98207  -0.97437  -0.95256  -0.94756
 Alpha  occ. eigenvalues --   -0.94275  -0.93502  -0.91705  -0.91540  -0.91173
 Alpha  occ. eigenvalues --   -0.89625  -0.88435  -0.87730  -0.86842  -0.86212
 Alpha  occ. eigenvalues --   -0.84924  -0.80571  -0.78809  -0.77823  -0.76017
 Alpha  occ. eigenvalues --   -0.75552  -0.75434  -0.72404  -0.72231  -0.72046
 Alpha  occ. eigenvalues --   -0.71504  -0.70936  -0.70166  -0.68427  -0.67581
 Alpha  occ. eigenvalues --   -0.66961  -0.65826  -0.65749  -0.65404  -0.63895
 Alpha  occ. eigenvalues --   -0.63763  -0.63235  -0.62779  -0.62742  -0.62667
 Alpha  occ. eigenvalues --   -0.62563  -0.62315  -0.62199  -0.61297  -0.60376
 Alpha  occ. eigenvalues --   -0.60259  -0.59817  -0.59785  -0.58576  -0.58328
 Alpha  occ. eigenvalues --   -0.57785  -0.57291  -0.56456  -0.56078  -0.55550
 Alpha  occ. eigenvalues --   -0.55081  -0.54731  -0.54250  -0.53505  -0.53328
 Alpha  occ. eigenvalues --   -0.53083  -0.52809  -0.52432  -0.52009  -0.51672
 Alpha  occ. eigenvalues --   -0.51436  -0.51126  -0.51045  -0.49537  -0.49225
 Alpha  occ. eigenvalues --   -0.48864  -0.48439  -0.48078  -0.47902  -0.47017
 Alpha  occ. eigenvalues --   -0.46550  -0.46013  -0.45627  -0.45539  -0.45294
 Alpha  occ. eigenvalues --   -0.41769  -0.40439  -0.39000  -0.38898  -0.38622
 Alpha  occ. eigenvalues --   -0.38555  -0.38130  -0.38016  -0.37442  -0.34984
 Alpha  occ. eigenvalues --   -0.34748  -0.34413  -0.34029  -0.32122  -0.30133
 Alpha virt. eigenvalues --   -0.00180   0.02136   0.04624   0.07614   0.07871
 Alpha virt. eigenvalues --    0.08206   0.08315   0.09737   0.11334   0.12683
 Alpha virt. eigenvalues --    0.12936   0.14167   0.14311   0.14720   0.14966

  Beta  occ. eigenvalues --  -88.33446 -88.33222 -88.32518 -24.50612 -24.50551
  Beta  occ. eigenvalues --  -24.50165 -19.03979 -19.03878 -19.03409 -14.22118
  Beta  occ. eigenvalues --  -14.21858 -14.21219 -10.22491 -10.22418 -10.22033
  Beta  occ. eigenvalues --  -10.21439 -10.21327 -10.20953 -10.20252 -10.20083
  Beta  occ. eigenvalues --  -10.19614 -10.19599 -10.19314 -10.19098 -10.16933
  Beta  occ. eigenvalues --  -10.16747 -10.16527 -10.16439 -10.15648 -10.15398
  Beta  occ. eigenvalues --  -10.15387 -10.15367 -10.15207 -10.15020 -10.14874
  Beta  occ. eigenvalues --  -10.14705 -10.13931 -10.13848 -10.13525 -10.13437
  Beta  occ. eigenvalues --  -10.13398 -10.13066  -7.94262  -7.94023  -7.93340
  Beta  occ. eigenvalues --   -5.95731  -5.95495  -5.95208  -5.94969  -5.94841
  Beta  occ. eigenvalues --   -5.94802  -5.94604  -5.94276  -5.93938  -1.35723
  Beta  occ. eigenvalues --   -1.35713  -1.35293  -1.23798  -1.23689  -1.23262
  Beta  occ. eigenvalues --   -1.12695  -1.12446  -1.11640  -1.04210  -1.03647
  Beta  occ. eigenvalues --   -1.03326  -0.98207  -0.97437  -0.95256  -0.94756
  Beta  occ. eigenvalues --   -0.94275  -0.93502  -0.91705  -0.91540  -0.91173
  Beta  occ. eigenvalues --   -0.89625  -0.88435  -0.87730  -0.86842  -0.86212
  Beta  occ. eigenvalues --   -0.84924  -0.80571  -0.78809  -0.77823  -0.76017
  Beta  occ. eigenvalues --   -0.75552  -0.75434  -0.72404  -0.72231  -0.72046
  Beta  occ. eigenvalues --   -0.71504  -0.70936  -0.70166  -0.68427  -0.67581
  Beta  occ. eigenvalues --   -0.66961  -0.65826  -0.65749  -0.65404  -0.63895
  Beta  occ. eigenvalues --   -0.63763  -0.63235  -0.62779  -0.62742  -0.62667
  Beta  occ. eigenvalues --   -0.62563  -0.62315  -0.62199  -0.61297  -0.60376
  Beta  occ. eigenvalues --   -0.60259  -0.59817  -0.59785  -0.58576  -0.58328
  Beta  occ. eigenvalues --   -0.57785  -0.57291  -0.56456  -0.56078  -0.55550
  Beta  occ. eigenvalues --   -0.55081  -0.54731  -0.54250  -0.53505  -0.53328
  Beta  occ. eigenvalues --   -0.53083  -0.52809  -0.52432  -0.52009  -0.51672
  Beta  occ. eigenvalues --   -0.51436  -0.51126  -0.51045  -0.49537  -0.49225
  Beta  occ. eigenvalues --   -0.48864  -0.48439  -0.48078  -0.47902  -0.47017
  Beta  occ. eigenvalues --   -0.46550  -0.46013  -0.45627  -0.45539  -0.45294
  Beta  occ. eigenvalues --   -0.41769  -0.40439  -0.39000  -0.38898  -0.38622
  Beta  occ. eigenvalues --   -0.38555  -0.38130  -0.38016  -0.37442  -0.34984
  Beta  occ. eigenvalues --   -0.34748  -0.34413  -0.34029  -0.32122  -0.30133
  Beta virt. eigenvalues --   -0.00180   0.02136   0.04624   0.07614   0.07871
  Beta virt. eigenvalues --    0.08206   0.08315   0.09737   0.11334   0.12683
  Beta virt. eigenvalues --    0.12936   0.14167   0.14311   0.14720   0.14966

 Mulliken charges and spin densities:
               1          2
     1  C    0.026875  -0.000000
     2  C   -0.019908   0.000000
     3  C    0.131541   0.000000
     4  F   -0.103011  -0.000000
     5  C   -0.083285  -0.000000
     6  C    0.134345   0.000000
     7  O   -0.258034  -0.000000
     8  C    0.042211   0.000000
     9  C   -0.059617  -0.000000
    10  C    0.007831  -0.000000
    11  N   -0.165079   0.000000
    12  C    0.115134   0.000000
    13  C   -0.222383  -0.000000
    14  S    0.172268   0.000000
    15  C    0.053675  -0.000000
    16  C   -0.030264   0.000000
    17  C    0.140250  -0.000000
    18  F   -0.099121   0.000000
    19  C   -0.072394   0.000000
    20  C    0.139773  -0.000000
    21  O   -0.261574  -0.000000
    22  C    0.044131   0.000000
    23  C   -0.053729   0.000000
    24  C    0.006211  -0.000000
    25  N   -0.168547   0.000000
    26  C    0.116034   0.000000
    27  C   -0.222358  -0.000000
    28  S    0.170799   0.000000
    29  C    0.052099   0.000000
    30  C   -0.032498  -0.000000
    31  C    0.142108   0.000000
    32  F   -0.101619   0.000000
    33  C   -0.069045   0.000000
    34  C    0.141239  -0.000000
    35  O   -0.257469  -0.000000
    36  C    0.043372  -0.000000
    37  C   -0.055437   0.000000
    38  C   -0.013233   0.000000
    39  N   -0.172299  -0.000000
    40  C    0.099658  -0.000000
    41  C   -0.191447   0.000000
    42  S    0.170590   0.000000
    43  H    0.018302   0.000000
    44  H    0.021540   0.000000
    45  H    0.056591   0.000000
    46  H    0.065763  -0.000000
    47  H    0.058303   0.000000
    48  H    0.012111  -0.000000
    49  H    0.025702   0.000000
    50  H    0.015784   0.000000
    51  H    0.059905  -0.000000
    52  H    0.057751  -0.000000
    53  H    0.065952   0.000000
    54  H    0.009251   0.000000
    55  H    0.025143  -0.000000
    56  H    0.014588  -0.000000
    57  H    0.068389  -0.000000
    58  H    0.058385  -0.000000
    59  H    0.055639  -0.000000
    60  H    0.008153   0.000000
    61  H    0.019796  -0.000000
    62  H    0.045160   0.000000
 Sum of Mulliken charges =  -0.00000   0.00000

 Dipole moment (field-independent basis, Debye):
    X=              4.2262    Y=              9.8975    Z=             -0.0505  Tot=             10.7622
 Quadrupole moment (field-independent basis, Debye-Ang):
   XX=           -236.3112   YY=           -232.6254   ZZ=           -261.4363
   XY=             12.9143   XZ=              0.1404   YZ=             -4.9987

 Normal termination of Gaussian 16 at Sun Jul 26 17:36:03 2020.
