 Gaussian 16, Revision A.03,
 Gaussian 16:  EM64L-G16RevA.03 25-Dec-2016

 ---------------------------------------------------------------
 #P uLC-wPBE/cc-pVDZ iop(3/107=0375700000, 3/108=0375700000) opt
 ---------------------------------------------------------------

 ----------------
 H37 C55 S5 O5 F5
 ----------------
 Symbolic Z-matrix:
 Charge =  0 Multiplicity = 1

 SCF Done:  E(ULC-wPBE) =  -4981.65635943     A.U. after   18 cycles
 SCF Done:  E(ULC-wPBE) =  -4981.73741192     A.U. after   14 cycles
 SCF Done:  E(ULC-wPBE) =  -4981.80154249     A.U. after   15 cycles
 SCF Done:  E(ULC-wPBE) =  -4981.81917900     A.U. after   15 cycles
 SCF Done:  E(ULC-wPBE) =  -4981.82435523     A.U. after   14 cycles
 SCF Done:  E(ULC-wPBE) =  -4981.82588606     A.U. after   13 cycles
 SCF Done:  E(ULC-wPBE) =  -4981.82734698     A.U. after   14 cycles
 SCF Done:  E(ULC-wPBE) =  -4981.82800492     A.U. after   13 cycles
 SCF Done:  E(ULC-wPBE) =  -4981.82842362     A.U. after   14 cycles
 SCF Done:  E(ULC-wPBE) =  -4981.82859108     A.U. after   14 cycles
 SCF Done:  E(ULC-wPBE) =  -4981.82879013     A.U. after   11 cycles
 SCF Done:  E(ULC-wPBE) =  -4981.82879305     A.U. after   11 cycles
 SCF Done:  E(ULC-wPBE) =  -4981.82879385     A.U. after   10 cycles
 SCF Done:  E(ULC-wPBE) =  -4981.82879458     A.U. after    8 cycles
 SCF Done:  E(ULC-wPBE) =  -4981.82879488     A.U. after    7 cycles
 SCF Done:  E(ULC-wPBE) =  -4981.82879515     A.U. after    7 cycles
 SCF Done:  E(ULC-wPBE) =  -4981.82879550     A.U. after    8 cycles
 SCF Done:  E(ULC-wPBE) =  -4981.82879560     A.U. after    7 cycles
 SCF Done:  E(ULC-wPBE) =  -4981.82879563     A.U. after    7 cycles
 SCF Done:  E(ULC-wPBE) =  -4981.82879561     A.U. after    6 cycles
 Optimization completed.
    -- Stationary point found.

                         Standard orientation:
 ---------------------------------------------------------------------
 Center     Atomic      Atomic             Coordinates (Angstroms)
 Number     Number       Type             X           Y           Z
 ---------------------------------------------------------------------
      1          6           0      -18.886433   -2.037735    0.384564
      2          6           0      -17.920981   -2.646514   -0.397486
      3          6           0      -16.657850   -2.078349   -0.431959
      4          9           0      -15.725615   -2.679826   -1.191063
      5          6           0      -16.301080   -0.931677    0.271725
      6          6           0      -17.313325   -0.336712    1.058135
      7          8           0      -16.958966    0.778134    1.736241
      8          6           0      -17.904867    1.367237    2.600634
      9          6           0      -18.591790   -0.889318    1.112038
     10          6           0      -14.939505   -0.367278    0.200464
     11          6           0      -14.570772    0.951424    0.168133
     12          6           0      -13.165181    1.140277    0.136129
     13          6           0      -12.465052   -0.035617    0.154011
     14         16           0      -13.539061   -1.381937    0.203465
     15          6           0      -11.004794   -0.221325    0.120812
     16          6           0      -10.168308    0.733982    0.688263
     17          6           0       -8.800193    0.541227    0.630009
     18          9           0       -8.022777    1.487253    1.185874
     19          6           0       -8.186110   -0.562756    0.045344
     20          6           0       -9.057452   -1.522637   -0.517605
     21          8           0       -8.468414   -2.595677   -1.090245
     22          6           0       -9.285053   -3.548671   -1.735671
     23          6           0      -10.437580   -1.347886   -0.482531
     24          6           0       -6.720849   -0.721000    0.015683
     25          6           0       -5.990760   -1.875874    0.122341
     26          6           0       -4.591974   -1.668003    0.014554
     27          6           0       -4.257602   -0.355729   -0.183648
     28         16           0       -5.669177    0.630925   -0.230584
     29          6           0       -2.912262    0.224478   -0.328348
     30          6           0       -1.887723   -0.525366   -0.896051
     31          6           0       -0.630207    0.039289   -1.006425
     32          9           0        0.335803   -0.715917   -1.556956
     33          6           0       -0.309489    1.329882   -0.594580
     34          6           0       -1.368900    2.074001   -0.028054
     35          8           0       -1.064335    3.327290    0.377477
     36          6           0       -2.064345    4.089072    1.018254
     37          6           0       -2.640968    1.525996    0.104913
     38          6           0        1.048450    1.884531   -0.741408
     39          6           0        1.409528    3.173959   -1.033830
     40          6           0        2.813805    3.369762   -1.063772
     41          6           0        3.521081    2.231271   -0.784861
     42         16           0        2.456139    0.909893   -0.492610
     43          6           0        4.982749    2.058991   -0.739159
     44          6           0        5.578277    0.855180   -1.099381
     45          6           0        6.956696    0.750677   -1.046516
     46          9           0        7.497219   -0.427810   -1.401151
     47          6           0        7.808008    1.780889   -0.658769
     48          6           0        7.178595    2.994049   -0.297841
     49          8           0        8.000840    3.996065    0.087988
     50          6           0        7.426971    5.201183    0.542704
     51          6           0        5.793977    3.123461   -0.332784
     52          6           0        9.272526    1.616618   -0.622418
     53          6           0       10.236529    2.541900   -0.926479
     54          6           0       11.557206    2.056179   -0.748401
     55          6           0       11.598262    0.763942   -0.299500
     56         16           0       10.005399    0.138217   -0.101593
     57          6           0       12.785576   -0.059903   -0.016122
     58          6           0       13.957356    0.539102    0.433076
     59          6           0       15.062842   -0.256633    0.675454
     60          9           0       16.176308    0.355830    1.113062
     61          6           0       15.086436   -1.638125    0.511216
     62          6           0       13.882517   -2.223737    0.060392
     63          8           0       13.901153   -3.565207   -0.106794
     64          6           0       12.703399   -4.213617   -0.473929
     65          6           0       12.758134   -1.445814   -0.199570
     66          6           0       16.291907   -2.440896    0.792197
     67          6           0       16.761134   -3.527857    0.103281
     68          6           0       17.939981   -4.085728    0.670405
     69          6           0       18.341571   -3.420558    1.789836
     70         16           0       17.308253   -2.107448    2.153613
     71          1           0      -19.892038   -2.460150    0.433631
     72          1           0      -18.116339   -3.545326   -0.982107
     73          1           0      -17.396351    2.217299    3.070817
     74          1           0      -18.230483    0.663391    3.384203
     75          1           0      -18.786824    1.734377    2.049870
     76          1           0      -19.367871   -0.428487    1.721027
     77          1           0      -15.294496    1.763545    0.168241
     78          1           0      -12.686303    2.117608    0.073132
     79          1           0      -10.555065    1.615404    1.198729
     80          1           0       -9.976124   -4.037239   -1.029139
     81          1           0       -8.602056   -4.300292   -2.148742
     82          1           0       -9.862970   -3.095371   -2.557558
     83          1           0      -11.093462   -2.082880   -0.946875
     84          1           0       -6.451198   -2.849266    0.274573
     85          1           0       -3.852512   -2.463406    0.109448
     86          1           0       -2.048235   -1.532556   -1.279283
     87          1           0       -2.422820    3.595516    1.936381
     88          1           0       -1.593070    5.042781    1.283820
     89          1           0       -2.919700    4.282180    0.349961
     90          1           0       -3.438910    2.102678    0.570426
     91          1           0        0.681002    3.958923   -1.223011
     92          1           0        3.286959    4.318984   -1.316291
     93          1           0        4.998566   -0.001836   -1.443209
     94          1           0        6.778952    5.035598    1.419027
     95          1           0        6.847156    5.701050   -0.251002
     96          1           0        8.266106    5.844366    0.833224
     97          1           0        5.320816    4.051777   -0.018410
     98          1           0        9.998606    3.546061   -1.269862
     99          1           0       12.452004    2.637030   -0.972987
    100          1           0       14.027845    1.610237    0.619753
    101          1           0       11.903699   -4.034293    0.263308
    102          1           0       12.935856   -5.284862   -0.499135
    103          1           0       12.357184   -3.895986   -1.471460
    104          1           0       11.845870   -1.909964   -0.571677
    105          1           0       16.265571   -3.918426   -0.783003
    106          1           0       18.465588   -4.947687    0.259237
    107          1           0       19.206883   -3.625236    2.418231
 ---------------------------------------------------------------------

 The electronic state is 1-A.
 Alpha  occ. eigenvalues --  -88.30736 -88.30483 -88.30272 -88.30060 -88.29316
 Alpha  occ. eigenvalues --  -24.49591 -24.49450 -24.49167 -24.49029 -24.48502
 Alpha  occ. eigenvalues --  -19.01620 -19.01354 -19.01207 -19.01109 -19.00534
 Alpha  occ. eigenvalues --  -10.20299 -10.20138 -10.19902 -10.19757 -10.19253
 Alpha  occ. eigenvalues --  -10.19081 -10.18885 -10.18686 -10.18562 -10.18029
 Alpha  occ. eigenvalues --  -10.17393 -10.16979 -10.16886 -10.16883 -10.16270
 Alpha  occ. eigenvalues --  -10.14875 -10.14663 -10.14534 -10.14483 -10.14418
 Alpha  occ. eigenvalues --  -10.14272 -10.14253 -10.14192 -10.14137 -10.14056
 Alpha  occ. eigenvalues --  -10.13850 -10.13676 -10.13617 -10.13449 -10.13396
 Alpha  occ. eigenvalues --  -10.13178 -10.13150 -10.13043 -10.12489 -10.12329
 Alpha  occ. eigenvalues --  -10.11911 -10.11694 -10.11595 -10.11453 -10.11387
 Alpha  occ. eigenvalues --  -10.11374 -10.11289 -10.11220 -10.11209 -10.11111
 Alpha  occ. eigenvalues --  -10.11073 -10.11034 -10.10931 -10.10814 -10.10787
 Alpha  occ. eigenvalues --  -10.10689 -10.10653 -10.10563 -10.10021 -10.09848
 Alpha  occ. eigenvalues --   -7.91455  -7.91199  -7.90987  -7.90777  -7.90045
 Alpha  occ. eigenvalues --   -5.93066  -5.92811  -5.92600  -5.92534  -5.92388
 Alpha  occ. eigenvalues --   -5.92278  -5.92140  -5.92064  -5.91883  -5.91855
 Alpha  occ. eigenvalues --   -5.91673  -5.91649  -5.91461  -5.91112  -5.90746
 Alpha  occ. eigenvalues --   -1.34250  -1.34101  -1.33841  -1.33697  -1.33177
 Alpha  occ. eigenvalues --   -1.21349  -1.21077  -1.20919  -1.20835  -1.20265
 Alpha  occ. eigenvalues --   -1.04298  -1.04011  -1.03766  -1.03453  -1.02195
 Alpha  occ. eigenvalues --   -1.01834  -1.01324  -1.00831  -1.00357  -0.99841
 Alpha  occ. eigenvalues --   -0.95099  -0.94329  -0.93353  -0.92388  -0.91813
 Alpha  occ. eigenvalues --   -0.89840  -0.89818  -0.89657  -0.89458  -0.89012
 Alpha  occ. eigenvalues --   -0.87979  -0.87662  -0.87357  -0.87214  -0.86937
 Alpha  occ. eigenvalues --   -0.86641  -0.86066  -0.85694  -0.85159  -0.84856
 Alpha  occ. eigenvalues --   -0.84543  -0.84226  -0.83932  -0.82780  -0.81672
 Alpha  occ. eigenvalues --   -0.78550  -0.77287  -0.76148  -0.75228  -0.74850
 Alpha  occ. eigenvalues --   -0.74255  -0.74097  -0.73918  -0.73808  -0.73427
 Alpha  occ. eigenvalues --   -0.70053  -0.69833  -0.69624  -0.69188  -0.69124
 Alpha  occ. eigenvalues --   -0.68812  -0.68407  -0.68281  -0.67549  -0.67300
 Alpha  occ. eigenvalues --   -0.67024  -0.65818  -0.65584  -0.65374  -0.64833
 Alpha  occ. eigenvalues --   -0.64030  -0.63901  -0.63708  -0.63537  -0.63220
 Alpha  occ. eigenvalues --   -0.62921  -0.62829  -0.62628  -0.62362  -0.62076
 Alpha  occ. eigenvalues --   -0.61622  -0.61563  -0.61340  -0.61166  -0.61077
 Alpha  occ. eigenvalues --   -0.60828  -0.60792  -0.60608  -0.60523  -0.60076
 Alpha  occ. eigenvalues --   -0.59957  -0.59283  -0.59151  -0.59042  -0.58881
 Alpha  occ. eigenvalues --   -0.58719  -0.58356  -0.58148  -0.57422  -0.56956
 Alpha  occ. eigenvalues --   -0.56780  -0.56234  -0.55958  -0.55540  -0.54969
 Alpha  occ. eigenvalues --   -0.53963  -0.53296  -0.53056  -0.52847  -0.52620
 Alpha  occ. eigenvalues --   -0.52421  -0.52203  -0.52180  -0.51930  -0.51796
 Alpha  occ. eigenvalues --   -0.51693  -0.51663  -0.51469  -0.51355  -0.51330
 Alpha  occ. eigenvalues --   -0.51230  -0.50972  -0.50777  -0.50639  -0.50449
 Alpha  occ. eigenvalues --   -0.50178  -0.49958  -0.49811  -0.49556  -0.49317
 Alpha  occ. eigenvalues --   -0.49163  -0.48976  -0.48759  -0.48614  -0.48364
 Alpha  occ. eigenvalues --   -0.48344  -0.48077  -0.47948  -0.47794  -0.47592
 Alpha  occ. eigenvalues --   -0.47267  -0.45333  -0.45205  -0.45153  -0.44843
 Alpha  occ. eigenvalues --   -0.44812  -0.44699  -0.44561  -0.44528  -0.44344
 Alpha  occ. eigenvalues --   -0.44244  -0.43988  -0.43870  -0.43803  -0.43705
 Alpha  occ. eigenvalues --   -0.43374  -0.40024  -0.39319  -0.38402  -0.37329
 Alpha  occ. eigenvalues --   -0.36335  -0.35471  -0.35228  -0.35058  -0.34825
 Alpha  occ. eigenvalues --   -0.34096  -0.34050  -0.33922  -0.33725  -0.33567
 Alpha  occ. eigenvalues --   -0.33139  -0.32842  -0.31677  -0.30203  -0.28828
 Alpha  occ. eigenvalues --   -0.27847
 Alpha virt. eigenvalues --    0.00083   0.01197   0.02700   0.04385   0.05955
 Alpha virt. eigenvalues --    0.07764   0.07828   0.08027   0.08166   0.08381
 Alpha virt. eigenvalues --    0.08779   0.09174   0.10476   0.11592   0.12328

  Beta  occ. eigenvalues --  -88.30736 -88.30483 -88.30272 -88.30060 -88.29316
  Beta  occ. eigenvalues --  -24.49591 -24.49450 -24.49167 -24.49029 -24.48502
  Beta  occ. eigenvalues --  -19.01620 -19.01354 -19.01207 -19.01109 -19.00534
  Beta  occ. eigenvalues --  -10.20299 -10.20138 -10.19902 -10.19757 -10.19253
  Beta  occ. eigenvalues --  -10.19081 -10.18885 -10.18686 -10.18562 -10.18029
  Beta  occ. eigenvalues --  -10.17393 -10.16979 -10.16886 -10.16883 -10.16270
  Beta  occ. eigenvalues --  -10.14875 -10.14663 -10.14534 -10.14483 -10.14418
  Beta  occ. eigenvalues --  -10.14272 -10.14253 -10.14192 -10.14137 -10.14056
  Beta  occ. eigenvalues --  -10.13850 -10.13676 -10.13617 -10.13449 -10.13396
  Beta  occ. eigenvalues --  -10.13178 -10.13150 -10.13043 -10.12489 -10.12329
  Beta  occ. eigenvalues --  -10.11911 -10.11694 -10.11595 -10.11453 -10.11387
  Beta  occ. eigenvalues --  -10.11374 -10.11289 -10.11220 -10.11209 -10.11111
  Beta  occ. eigenvalues --  -10.11073 -10.11034 -10.10931 -10.10814 -10.10787
  Beta  occ. eigenvalues --  -10.10689 -10.10653 -10.10563 -10.10021 -10.09848
  Beta  occ. eigenvalues --   -7.91455  -7.91199  -7.90987  -7.90777  -7.90045
  Beta  occ. eigenvalues --   -5.93066  -5.92811  -5.92600  -5.92534  -5.92388
  Beta  occ. eigenvalues --   -5.92278  -5.92140  -5.92064  -5.91883  -5.91855
  Beta  occ. eigenvalues --   -5.91673  -5.91649  -5.91461  -5.91112  -5.90746
  Beta  occ. eigenvalues --   -1.34250  -1.34101  -1.33841  -1.33697  -1.33177
  Beta  occ. eigenvalues --   -1.21349  -1.21077  -1.20919  -1.20835  -1.20265
  Beta  occ. eigenvalues --   -1.04298  -1.04011  -1.03766  -1.03453  -1.02195
  Beta  occ. eigenvalues --   -1.01834  -1.01324  -1.00831  -1.00357  -0.99841
  Beta  occ. eigenvalues --   -0.95099  -0.94329  -0.93353  -0.92388  -0.91813
  Beta  occ. eigenvalues --   -0.89840  -0.89818  -0.89657  -0.89458  -0.89012
  Beta  occ. eigenvalues --   -0.87979  -0.87662  -0.87357  -0.87214  -0.86937
  Beta  occ. eigenvalues --   -0.86641  -0.86066  -0.85694  -0.85159  -0.84856
  Beta  occ. eigenvalues --   -0.84543  -0.84226  -0.83932  -0.82780  -0.81672
  Beta  occ. eigenvalues --   -0.78550  -0.77287  -0.76148  -0.75228  -0.74850
  Beta  occ. eigenvalues --   -0.74255  -0.74097  -0.73918  -0.73808  -0.73427
  Beta  occ. eigenvalues --   -0.70053  -0.69833  -0.69624  -0.69188  -0.69124
  Beta  occ. eigenvalues --   -0.68812  -0.68407  -0.68281  -0.67549  -0.67300
  Beta  occ. eigenvalues --   -0.67024  -0.65818  -0.65584  -0.65374  -0.64833
  Beta  occ. eigenvalues --   -0.64030  -0.63901  -0.63708  -0.63537  -0.63220
  Beta  occ. eigenvalues --   -0.62921  -0.62829  -0.62628  -0.62362  -0.62076
  Beta  occ. eigenvalues --   -0.61622  -0.61563  -0.61340  -0.61166  -0.61077
  Beta  occ. eigenvalues --   -0.60828  -0.60792  -0.60608  -0.60523  -0.60076
  Beta  occ. eigenvalues --   -0.59957  -0.59283  -0.59151  -0.59042  -0.58881
  Beta  occ. eigenvalues --   -0.58719  -0.58356  -0.58148  -0.57422  -0.56956
  Beta  occ. eigenvalues --   -0.56780  -0.56234  -0.55958  -0.55540  -0.54969
  Beta  occ. eigenvalues --   -0.53963  -0.53296  -0.53056  -0.52847  -0.52620
  Beta  occ. eigenvalues --   -0.52421  -0.52203  -0.52180  -0.51930  -0.51796
  Beta  occ. eigenvalues --   -0.51693  -0.51663  -0.51469  -0.51355  -0.51330
  Beta  occ. eigenvalues --   -0.51230  -0.50972  -0.50777  -0.50639  -0.50449
  Beta  occ. eigenvalues --   -0.50178  -0.49958  -0.49811  -0.49556  -0.49317
  Beta  occ. eigenvalues --   -0.49163  -0.48976  -0.48759  -0.48614  -0.48364
  Beta  occ. eigenvalues --   -0.48344  -0.48077  -0.47948  -0.47794  -0.47592
  Beta  occ. eigenvalues --   -0.47267  -0.45333  -0.45205  -0.45153  -0.44843
  Beta  occ. eigenvalues --   -0.44812  -0.44699  -0.44561  -0.44528  -0.44344
  Beta  occ. eigenvalues --   -0.44244  -0.43988  -0.43870  -0.43803  -0.43705
  Beta  occ. eigenvalues --   -0.43374  -0.40024  -0.39319  -0.38402  -0.37329
  Beta  occ. eigenvalues --   -0.36335  -0.35471  -0.35228  -0.35058  -0.34825
  Beta  occ. eigenvalues --   -0.34096  -0.34050  -0.33922  -0.33725  -0.33567
  Beta  occ. eigenvalues --   -0.33139  -0.32842  -0.31677  -0.30203  -0.28828
  Beta  occ. eigenvalues --   -0.27847
  Beta virt. eigenvalues --    0.00083   0.01197   0.02700   0.04385   0.05955
  Beta virt. eigenvalues --    0.07764   0.07828   0.08027   0.08166   0.08381
  Beta virt. eigenvalues --    0.08779   0.09174   0.10476   0.11592   0.12328

 Mulliken charges and spin densities:
               1          2
     1  C    0.025301  -0.000000
     2  C   -0.006164   0.000000
     3  C    0.110122  -0.000000
     4  F   -0.124909   0.000000
     5  C   -0.049374   0.000000
     6  C    0.110145  -0.000000
     7  O   -0.246905  -0.000000
     8  C    0.044643  -0.000000
     9  C   -0.052668  -0.000000
    10  C   -0.133709   0.000000
    11  C    0.056432  -0.000000
    12  C    0.016323   0.000000
    13  C   -0.162477   0.000000
    14  S    0.178298  -0.000000
    15  C    0.065281  -0.000000
    16  C   -0.019561  -0.000000
    17  C    0.117288   0.000000
    18  F   -0.125186   0.000000
    19  C   -0.035233   0.000000
    20  C    0.115610  -0.000000
    21  O   -0.250072   0.000000
    22  C    0.045773   0.000000
    23  C   -0.053288   0.000000
    24  C   -0.135775   0.000000
    25  C    0.052104  -0.000000
    26  C    0.018284   0.000000
    27  C   -0.162785  -0.000000
    28  S    0.175444   0.000000
    29  C    0.065516   0.000000
    30  C   -0.019479   0.000000
    31  C    0.118146  -0.000000
    32  F   -0.123128   0.000000
    33  C   -0.035928  -0.000000
    34  C    0.115241   0.000000
    35  O   -0.250803  -0.000000
    36  C    0.046146   0.000000
    37  C   -0.053737   0.000000
    38  C   -0.137192  -0.000000
    39  C    0.051210   0.000000
    40  C    0.014157  -0.000000
    41  C   -0.161303   0.000000
    42  S    0.186551  -0.000000
    43  C    0.057116  -0.000000
    44  C   -0.013386  -0.000000
    45  C    0.113728   0.000000
    46  F   -0.123677  -0.000000
    47  C   -0.035105   0.000000
    48  C    0.118308  -0.000000
    49  O   -0.249447   0.000000
    50  C    0.048019   0.000000
    51  C   -0.052227   0.000000
    52  C   -0.136348  -0.000000
    53  C    0.051468  -0.000000
    54  C    0.018050   0.000000
    55  C   -0.161740  -0.000000
    56  S    0.177204  -0.000000
    57  C    0.062420  -0.000000
    58  C   -0.022125   0.000000
    59  C    0.122756  -0.000000
    60  F   -0.123585   0.000000
    61  C   -0.038271   0.000000
    62  C    0.118752  -0.000000
    63  O   -0.247929   0.000000
    64  C    0.046036   0.000000
    65  C   -0.055169   0.000000
    66  C   -0.139439  -0.000000
    67  C    0.023230   0.000000
    68  C    0.039414  -0.000000
    69  C   -0.145892  -0.000000
    70  S    0.168929  -0.000000
    71  H    0.011858   0.000000
    72  H    0.014583   0.000000
    73  H    0.064516   0.000000
    74  H    0.054179   0.000000
    75  H    0.052692  -0.000000
    76  H    0.007807   0.000000
    77  H   -0.001613  -0.000000
    78  H    0.002471   0.000000
    79  H    0.004974   0.000000
    80  H    0.055586   0.000000
    81  H    0.063242  -0.000000
    82  H    0.057704  -0.000000
    83  H    0.009840  -0.000000
    84  H   -0.000855   0.000000
    85  H    0.002740   0.000000
    86  H    0.005901  -0.000000
    87  H    0.057583  -0.000000
    88  H    0.061537  -0.000000
    89  H    0.055537   0.000000
    90  H    0.009455  -0.000000
    91  H   -0.002073  -0.000000
    92  H   -0.001993  -0.000000
    93  H    0.015102   0.000000
    94  H    0.056274  -0.000000
    95  H    0.050842   0.000000
    96  H    0.063232   0.000000
    97  H   -0.001435   0.000000
    98  H   -0.002520  -0.000000
    99  H    0.001729   0.000000
   100  H    0.004175  -0.000000
   101  H    0.055723  -0.000000
   102  H    0.061830   0.000000
   103  H    0.055187  -0.000000
   104  H    0.008758   0.000000
   105  H   -0.000992   0.000000
   106  H    0.001804   0.000000
   107  H    0.035190   0.000000
 Sum of Mulliken charges =  -0.00000  -0.00000

 Dipole moment (field-independent basis, Debye):
    X=            -12.4336    Y=              2.3802    Z=              1.1064  Tot=             12.7076
 Quadrupole moment (field-independent basis, Debye-Ang):
   XX=           -350.5588   YY=           -363.0954   ZZ=           -432.6986
   XY=             -3.1643   XZ=            -33.0261   YZ=             16.6405

 Normal termination of Gaussian 16 at Sat Jul 25 08:44:04 2020.
