 Gaussian 16, Revision A.03,
 Gaussian 16:  EM64L-G16RevA.03 25-Dec-2016

 ---------------------------------------------------------------
 #P uLC-wPBE/cc-pVDZ iop(3/107=0433100000, 3/108=0433100000) opt
 ---------------------------------------------------------------

 ----------------
 H11 C27 S3 N3 F6
 ----------------
 Symbolic Z-matrix:
 Charge =  0 Multiplicity = 1

 SCF Done:  E(ULC-wPBE) =  -2991.81115700     A.U. after   17 cycles
 SCF Done:  E(ULC-wPBE) =  -2991.86179409     A.U. after   14 cycles
 SCF Done:  E(ULC-wPBE) =  -2991.88714345     A.U. after   15 cycles
 SCF Done:  E(ULC-wPBE) =  -2991.88845780     A.U. after   13 cycles
 SCF Done:  E(ULC-wPBE) =  -2991.88877526     A.U. after   13 cycles
 SCF Done:  E(ULC-wPBE) =  -2991.88923626     A.U. after   12 cycles
 SCF Done:  E(ULC-wPBE) =  -2991.88939556     A.U. after   13 cycles
 SCF Done:  E(ULC-wPBE) =  -2991.88945448     A.U. after   12 cycles
 SCF Done:  E(ULC-wPBE) =  -2991.88947143     A.U. after   11 cycles
 SCF Done:  E(ULC-wPBE) =  -2991.88947562     A.U. after   10 cycles
 SCF Done:  E(ULC-wPBE) =  -2991.88947666     A.U. after    9 cycles
 SCF Done:  E(ULC-wPBE) =  -2991.88947683     A.U. after    8 cycles
 SCF Done:  E(ULC-wPBE) =  -2991.88947686     A.U. after    7 cycles
 SCF Done:  E(ULC-wPBE) =  -2991.88947692     A.U. after    7 cycles
 SCF Done:  E(ULC-wPBE) =  -2991.88947697     A.U. after    7 cycles
 Optimization completed.
    -- Stationary point found.

                         Standard orientation:
 ---------------------------------------------------------------------
 Center     Atomic      Atomic             Coordinates (Angstroms)
 Number     Number       Type             X           Y           Z
 ---------------------------------------------------------------------
      1          6           0      -11.220079    0.345384   -0.238815
      2          6           0      -10.208811    1.258690    0.022005
      3          7           0       -8.936940    0.915415    0.157833
      4          6           0       -8.589809   -0.366167    0.039446
      5          6           0       -9.545555   -1.331743   -0.266043
      6          9           0       -9.183021   -2.598953   -0.466734
      7          6           0      -10.874023   -0.985280   -0.394830
      8          6           0       -7.161027   -0.664714    0.191519
      9          6           0       -6.501708   -1.776154    0.628432
     10          9           0       -7.099615   -2.886126    1.051440
     11          6           0       -5.092267   -1.657315    0.657470
     12          6           0       -4.685700   -0.422928    0.244140
     13         16           0       -6.021197    0.576998   -0.169096
     14          6           0       -3.308228    0.074451    0.140710
     15          6           0       -2.256148   -0.788052   -0.170078
     16          7           0       -0.997918   -0.402095   -0.278606
     17          6           0       -0.680433    0.880077   -0.095713
     18          6           0       -1.668643    1.798813    0.248274
     19          9           0       -1.349394    3.064583    0.514608
     20          6           0       -2.984275    1.408483    0.359522
     21          6           0        0.739333    1.221182   -0.221401
     22          6           0        1.372682    2.373193   -0.587745
     23          9           0        0.749446    3.491209   -0.947899
     24          6           0        2.784060    2.290999   -0.613783
     25          6           0        3.220350    1.044590   -0.272175
     26         16           0        1.908973   -0.011044    0.072640
     27          6           0        4.610549    0.578546   -0.191968
     28          6           0        4.964383   -0.739245   -0.481020
     29          7           0        6.200348   -1.201064   -0.408516
     30          6           0        7.191827   -0.385474   -0.051681
     31          6           0        6.928187    0.959005    0.202006
     32          9           0        7.923160    1.801029    0.479823
     33          6           0        5.641694    1.445020    0.153538
     34          6           0        8.535361   -0.970131   -0.003333
     35          6           0        9.625960   -0.669835    0.759957
     36          9           0        9.653351    0.286827    1.684821
     37          6           0       10.754026   -1.497270    0.532615
     38          6           0       10.483968   -2.434827   -0.411777
     39         16           0        8.888245   -2.328846   -1.005705
     40          1           0      -12.254646    0.671457   -0.331940
     41          1           0      -10.432363    2.322180    0.127501
     42          1           0      -11.604974   -1.758330   -0.627622
     43          1           0       -4.437100   -2.449659    1.009809
     44          1           0       -2.451734   -1.846205   -0.354500
     45          1           0       -3.731735    2.148115    0.645327
     46          1           0        3.420741    3.119630   -0.912815
     47          1           0        4.202944   -1.455237   -0.799463
     48          1           0        5.463699    2.493302    0.388537
     49          1           0       11.696059   -1.385257    1.062434
     50          1           0       11.154974   -3.202431   -0.787804
 ---------------------------------------------------------------------

 The electronic state is 1-A.
 Alpha  occ. eigenvalues --  -88.35491 -88.35430 -88.34624 -24.53601 -24.53436
 Alpha  occ. eigenvalues --  -24.53286 -24.53050 -24.53037 -24.52407 -14.25698
 Alpha  occ. eigenvalues --  -14.25384 -14.25295 -10.24755 -10.24488 -10.24406
 Alpha  occ. eigenvalues --  -10.23995 -10.23981 -10.23228 -10.21270 -10.21111
 Alpha  occ. eigenvalues --  -10.20906 -10.19977 -10.19941 -10.19356 -10.19030
 Alpha  occ. eigenvalues --  -10.18942 -10.18819 -10.18697 -10.18671 -10.18536
 Alpha  occ. eigenvalues --  -10.18119 -10.18028 -10.17883 -10.17811 -10.17786
 Alpha  occ. eigenvalues --  -10.16989 -10.16231 -10.16159 -10.15338  -7.96288
 Alpha  occ. eigenvalues --   -7.96222  -7.95434  -5.97690  -5.97625  -5.97146
 Alpha  occ. eigenvalues --   -5.97078  -5.96827  -5.96695  -5.96629  -5.96279
 Alpha  occ. eigenvalues --   -5.95859  -1.38805  -1.38637  -1.38437  -1.37838
 Alpha  occ. eigenvalues --   -1.37788  -1.37186  -1.14316  -1.13914  -1.13868
 Alpha  occ. eigenvalues --   -1.08646  -1.08182  -1.07048  -1.01056  -1.00120
 Alpha  occ. eigenvalues --   -0.99011  -0.97042  -0.96466  -0.95784  -0.92421
 Alpha  occ. eigenvalues --   -0.91713  -0.91384  -0.90286  -0.89505  -0.87659
 Alpha  occ. eigenvalues --   -0.83578  -0.81819  -0.81045  -0.80820  -0.80226
 Alpha  occ. eigenvalues --   -0.79594  -0.74277  -0.73998  -0.73580  -0.73459
 Alpha  occ. eigenvalues --   -0.73022  -0.72616  -0.71727  -0.70955  -0.69829
 Alpha  occ. eigenvalues --   -0.68242  -0.67763  -0.67440  -0.67236  -0.66517
 Alpha  occ. eigenvalues --   -0.66415  -0.63925  -0.63383  -0.63266  -0.63111
 Alpha  occ. eigenvalues --   -0.63053  -0.62641  -0.62015  -0.61874  -0.61342
 Alpha  occ. eigenvalues --   -0.60297  -0.60062  -0.59599  -0.58842  -0.58584
 Alpha  occ. eigenvalues --   -0.57510  -0.57415  -0.56533  -0.56452  -0.55840
 Alpha  occ. eigenvalues --   -0.55780  -0.55584  -0.55450  -0.55197  -0.54521
 Alpha  occ. eigenvalues --   -0.53925  -0.53280  -0.52556  -0.51982  -0.51600
 Alpha  occ. eigenvalues --   -0.51330  -0.51222  -0.50408  -0.50054  -0.49506
 Alpha  occ. eigenvalues --   -0.48199  -0.48033  -0.47430  -0.45032  -0.43427
 Alpha  occ. eigenvalues --   -0.42075  -0.40377  -0.40245  -0.40064  -0.39988
 Alpha  occ. eigenvalues --   -0.39748  -0.39114  -0.36977  -0.36870  -0.36177
 Alpha  occ. eigenvalues --   -0.35276  -0.33054  -0.30991
 Alpha virt. eigenvalues --   -0.01459   0.00983   0.03380   0.04899   0.05321
 Alpha virt. eigenvalues --    0.05844   0.07059   0.09482   0.11314   0.12522
 Alpha virt. eigenvalues --    0.12894   0.13573   0.15055   0.15332   0.15942

  Beta  occ. eigenvalues --  -88.35491 -88.35430 -88.34624 -24.53601 -24.53436
  Beta  occ. eigenvalues --  -24.53286 -24.53050 -24.53037 -24.52407 -14.25698
  Beta  occ. eigenvalues --  -14.25384 -14.25295 -10.24755 -10.24488 -10.24406
  Beta  occ. eigenvalues --  -10.23995 -10.23981 -10.23228 -10.21270 -10.21111
  Beta  occ. eigenvalues --  -10.20906 -10.19977 -10.19941 -10.19356 -10.19030
  Beta  occ. eigenvalues --  -10.18942 -10.18819 -10.18697 -10.18671 -10.18536
  Beta  occ. eigenvalues --  -10.18119 -10.18028 -10.17883 -10.17811 -10.17786
  Beta  occ. eigenvalues --  -10.16989 -10.16231 -10.16159 -10.15338  -7.96288
  Beta  occ. eigenvalues --   -7.96222  -7.95434  -5.97690  -5.97625  -5.97146
  Beta  occ. eigenvalues --   -5.97078  -5.96827  -5.96695  -5.96629  -5.96279
  Beta  occ. eigenvalues --   -5.95859  -1.38805  -1.38637  -1.38437  -1.37838
  Beta  occ. eigenvalues --   -1.37788  -1.37186  -1.14316  -1.13914  -1.13868
  Beta  occ. eigenvalues --   -1.08646  -1.08182  -1.07048  -1.01056  -1.00120
  Beta  occ. eigenvalues --   -0.99011  -0.97042  -0.96466  -0.95784  -0.92421
  Beta  occ. eigenvalues --   -0.91713  -0.91384  -0.90286  -0.89505  -0.87659
  Beta  occ. eigenvalues --   -0.83578  -0.81819  -0.81045  -0.80820  -0.80226
  Beta  occ. eigenvalues --   -0.79594  -0.74277  -0.73998  -0.73580  -0.73459
  Beta  occ. eigenvalues --   -0.73022  -0.72616  -0.71727  -0.70955  -0.69829
  Beta  occ. eigenvalues --   -0.68242  -0.67763  -0.67440  -0.67236  -0.66517
  Beta  occ. eigenvalues --   -0.66415  -0.63925  -0.63383  -0.63266  -0.63111
  Beta  occ. eigenvalues --   -0.63053  -0.62641  -0.62015  -0.61874  -0.61342
  Beta  occ. eigenvalues --   -0.60297  -0.60062  -0.59599  -0.58842  -0.58584
  Beta  occ. eigenvalues --   -0.57510  -0.57415  -0.56533  -0.56452  -0.55840
  Beta  occ. eigenvalues --   -0.55780  -0.55584  -0.55450  -0.55197  -0.54521
  Beta  occ. eigenvalues --   -0.53925  -0.53280  -0.52556  -0.51982  -0.51600
  Beta  occ. eigenvalues --   -0.51330  -0.51222  -0.50408  -0.50054  -0.49506
  Beta  occ. eigenvalues --   -0.48199  -0.48033  -0.47430  -0.45032  -0.43427
  Beta  occ. eigenvalues --   -0.42075  -0.40377  -0.40245  -0.40064  -0.39988
  Beta  occ. eigenvalues --   -0.39748  -0.39114  -0.36977  -0.36870  -0.36177
  Beta  occ. eigenvalues --   -0.35276  -0.33054  -0.30991
  Beta virt. eigenvalues --   -0.01459   0.00983   0.03380   0.04899   0.05321
  Beta virt. eigenvalues --    0.05844   0.07059   0.09482   0.11314   0.12522
  Beta virt. eigenvalues --    0.12894   0.13573   0.15055   0.15332   0.15942

 Mulliken charges and spin densities:
               1          2
     1  C   -0.055818   0.000000
     2  C    0.081679  -0.000000
     3  N   -0.208555   0.000000
     4  C    0.073597   0.000000
     5  C    0.105923  -0.000000
     6  F   -0.115831  -0.000000
     7  C    0.045767  -0.000000
     8  C   -0.185059  -0.000000
     9  C    0.126648  -0.000000
    10  F   -0.112430  -0.000000
    11  C    0.013736  -0.000000
    12  C   -0.164364   0.000000
    13  S    0.226695  -0.000000
    14  C   -0.037532   0.000000
    15  C    0.094341   0.000000
    16  N   -0.205597  -0.000000
    17  C    0.080362   0.000000
    18  C    0.115530   0.000000
    19  F   -0.112402   0.000000
    20  C    0.058381  -0.000000
    21  C   -0.190306  -0.000000
    22  C    0.123648  -0.000000
    23  F   -0.111936  -0.000000
    24  C    0.013880  -0.000000
    25  C   -0.165138   0.000000
    26  S    0.232285   0.000000
    27  C   -0.036570  -0.000000
    28  C    0.091321  -0.000000
    29  N   -0.202381   0.000000
    30  C    0.084443   0.000000
    31  C    0.119293  -0.000000
    32  F   -0.113653  -0.000000
    33  C    0.054243   0.000000
    34  C   -0.196585   0.000000
    35  C    0.105902  -0.000000
    36  F   -0.117029   0.000000
    37  C    0.029734   0.000000
    38  C   -0.141684  -0.000000
    39  S    0.216784   0.000000
    40  H    0.028129   0.000000
    41  H    0.033123  -0.000000
    42  H    0.039949   0.000000
    43  H    0.028708  -0.000000
    44  H    0.029982   0.000000
    45  H    0.040605  -0.000000
    46  H    0.026546  -0.000000
    47  H    0.037648   0.000000
    48  H    0.030753   0.000000
    49  H    0.029269  -0.000000
    50  H    0.053965  -0.000000
 Sum of Mulliken charges =  -0.00000   0.00000

 Dipole moment (field-independent basis, Debye):
    X=             -3.0427    Y=              0.0945    Z=             -0.4466  Tot=              3.0768
 Quadrupole moment (field-independent basis, Debye-Ang):
   XX=           -163.9289   YY=           -232.2153   ZZ=           -238.9307
   XY=            -10.8329   XZ=              0.4157   YZ=              0.6242

 Normal termination of Gaussian 16 at Sat Jul 25 16:28:40 2020.
