 Gaussian 16, Revision A.03,
 Gaussian 16:  EM64L-G16RevA.03 25-Dec-2016

 ---------------------------------------------------------------
 #P uLC-wPBE/cc-pVDZ iop(3/107=0109200000, 3/108=0109200000) opt
 ---------------------------------------------------------------

 -------------
 H17 C27 S3 N3
 -------------
 Symbolic Z-matrix:
 Charge =  0 Multiplicity = 1

 SCF Done:  E(ULC-wPBE) =  -2396.32014107     A.U. after   16 cycles
 SCF Done:  E(ULC-wPBE) =  -2396.37375328     A.U. after   14 cycles
 SCF Done:  E(ULC-wPBE) =  -2396.40127186     A.U. after   15 cycles
 SCF Done:  E(ULC-wPBE) =  -2396.40281545     A.U. after   13 cycles
 SCF Done:  E(ULC-wPBE) =  -2396.40321579     A.U. after   13 cycles
 SCF Done:  E(ULC-wPBE) =  -2396.40361832     A.U. after   12 cycles
 SCF Done:  E(ULC-wPBE) =  -2396.40381454     A.U. after   12 cycles
 SCF Done:  E(ULC-wPBE) =  -2396.40387187     A.U. after   11 cycles
 SCF Done:  E(ULC-wPBE) =  -2396.40390928     A.U. after   11 cycles
 SCF Done:  E(ULC-wPBE) =  -2396.40392116     A.U. after   10 cycles
 SCF Done:  E(ULC-wPBE) =  -2396.40392345     A.U. after    8 cycles
 SCF Done:  E(ULC-wPBE) =  -2396.40392416     A.U. after    8 cycles
 SCF Done:  E(ULC-wPBE) =  -2396.40392439     A.U. after    7 cycles
 SCF Done:  E(ULC-wPBE) =  -2396.40392479     A.U. after    8 cycles
 SCF Done:  E(ULC-wPBE) =  -2396.40392502     A.U. after    8 cycles
 SCF Done:  E(ULC-wPBE) =  -2396.40392511     A.U. after    7 cycles
 SCF Done:  E(ULC-wPBE) =  -2396.40392518     A.U. after    7 cycles
 SCF Done:  E(ULC-wPBE) =  -2396.40392512     A.U. after    6 cycles
 Optimization completed.
    -- Stationary point found.

                         Standard orientation:
 ---------------------------------------------------------------------
 Center     Atomic      Atomic             Coordinates (Angstroms)
 Number     Number       Type             X           Y           Z
 ---------------------------------------------------------------------
      1          6           0       11.580063    0.214789   -0.310042
      2          6           0       10.671620    1.278727   -0.417595
      3          6           0        9.295676    1.042995   -0.316139
      4          6           0        8.807394   -0.263859   -0.105950
      5          6           0        9.728447   -1.329767    0.001602
      6          6           0       11.102048   -1.088676   -0.099932
      7          6           0        7.370966   -0.557448    0.005392
      8          7           0        6.879725   -1.764317    0.217365
      9          6           0        5.514954   -1.741303    0.274573
     10          6           0        4.892474   -0.511080    0.107929
     11         16           0        6.134841    0.699830   -0.141207
     12          6           0        3.462369   -0.188028    0.125992
     13          6           0        2.498842   -1.193682   -0.124074
     14          6           0        1.134251   -0.905679   -0.089847
     15          6           0        0.675846    0.401015    0.182844
     16          6           0        1.633385    1.411458    0.423211
     17          6           0        2.996493    1.119966    0.397852
     18          6           0       -0.749334    0.748005    0.221307
     19          7           0       -1.204791    1.961415    0.474783
     20          6           0       -2.569903    1.994210    0.446697
     21          6           0       -3.229035    0.803366    0.169151
     22         16           0       -2.022672   -0.444263   -0.075614
     23          6           0       -4.669417    0.543252    0.080035
     24          6           0       -5.202486   -0.754862    0.249667
     25          6           0       -6.577119   -0.985393    0.173806
     26          6           0       -7.475051    0.074481   -0.068617
     27          6           0       -6.948315    1.374397   -0.239935
     28          6           0       -5.574866    1.602065   -0.172801
     29          6           0       -8.928683   -0.121535   -0.153556
     30          7           0       -9.789750    0.852665   -0.375356
     31          6           0      -11.077371    0.380942   -0.403507
     32          6           0      -11.233428   -0.973375   -0.202713
     33         16           0       -9.684818   -1.713705    0.036476
     34          1           0       12.660417    0.401903   -0.389668
     35          1           0       11.037082    2.302387   -0.581449
     36          1           0        8.593640    1.886299   -0.400603
     37          1           0        9.334726   -2.341585    0.165654
     38          1           0       11.808398   -1.926906   -0.014423
     39          1           0        4.976647   -2.677306    0.473033
     40          1           0        2.826556   -2.213134   -0.369218
     41          1           0        0.413356   -1.712089   -0.291496
     42          1           0        1.275653    2.427253    0.636640
     43          1           0        3.721366    1.920246    0.607672
     44          1           0       -3.082760    2.939620    0.666353
     45          1           0       -4.526587   -1.596469    0.459950
     46          1           0       -6.955386   -2.009041    0.313646
     47          1           0       -7.648453    2.196483   -0.438672
     48          1           0       -5.190526    2.617853   -0.339772
     49          1           0      -11.903152    1.082466   -0.579490
     50          1           0      -12.153785   -1.565997   -0.182274
 ---------------------------------------------------------------------

 The electronic state is 1-A.
 Alpha  occ. eigenvalues --  -88.17437 -88.17376 -88.17148 -14.06868 -14.06752
 Alpha  occ. eigenvalues --  -14.06642 -10.03178 -10.03059 -10.02945 -10.00813
 Alpha  occ. eigenvalues --  -10.00612  -9.99991  -9.99840  -9.99790  -9.99676
 Alpha  occ. eigenvalues --   -9.99592  -9.99529  -9.99124  -9.99076  -9.98658
 Alpha  occ. eigenvalues --   -9.98202  -9.98167  -9.98063  -9.98006  -9.97888
 Alpha  occ. eigenvalues --   -9.97805  -9.97599  -9.97562  -9.97544  -9.97330
 Alpha  occ. eigenvalues --   -9.97270  -9.97145  -9.96983  -7.77740  -7.77687
 Alpha  occ. eigenvalues --   -7.77459  -5.79778  -5.79734  -5.79505  -5.79368
 Alpha  occ. eigenvalues --   -5.79326  -5.79097  -5.79036  -5.78960  -5.78732
 Alpha  occ. eigenvalues --   -0.95009  -0.94824  -0.94791  -0.86269  -0.85971
 Alpha  occ. eigenvalues --   -0.84837  -0.81317  -0.80915  -0.79641  -0.78090
 Alpha  occ. eigenvalues --   -0.77577  -0.76591  -0.75119  -0.75048  -0.74304
 Alpha  occ. eigenvalues --   -0.73539  -0.71942  -0.70388  -0.65643  -0.64325
 Alpha  occ. eigenvalues --   -0.63213  -0.62733  -0.61625  -0.61287  -0.59353
 Alpha  occ. eigenvalues --   -0.58533  -0.57583  -0.56786  -0.56567  -0.56028
 Alpha  occ. eigenvalues --   -0.53843  -0.53176  -0.51914  -0.50878  -0.48992
 Alpha  occ. eigenvalues --   -0.48776  -0.48312  -0.47780  -0.47241  -0.46907
 Alpha  occ. eigenvalues --   -0.46032  -0.45394  -0.44788  -0.44487  -0.44347
 Alpha  occ. eigenvalues --   -0.44200  -0.44111  -0.43722  -0.43576  -0.43202
 Alpha  occ. eigenvalues --   -0.42945  -0.42527  -0.41186  -0.40369  -0.40064
 Alpha  occ. eigenvalues --   -0.39515  -0.39251  -0.39060  -0.38404  -0.38023
 Alpha  occ. eigenvalues --   -0.37081  -0.36556  -0.36320  -0.36051  -0.35040
 Alpha  occ. eigenvalues --   -0.33493  -0.31843  -0.31321  -0.31232  -0.30544
 Alpha  occ. eigenvalues --   -0.29971  -0.29847  -0.29727  -0.29599  -0.29403
 Alpha  occ. eigenvalues --   -0.29166  -0.27809  -0.25539  -0.23557
 Alpha virt. eigenvalues --   -0.05875  -0.03828  -0.01701   0.00312   0.00372
 Alpha virt. eigenvalues --    0.01084   0.01579   0.03309   0.03840   0.04225
 Alpha virt. eigenvalues --    0.04435   0.05525   0.06759   0.07903   0.08637

  Beta  occ. eigenvalues --  -88.17437 -88.17376 -88.17148 -14.06868 -14.06752
  Beta  occ. eigenvalues --  -14.06642 -10.03178 -10.03059 -10.02945 -10.00813
  Beta  occ. eigenvalues --  -10.00612  -9.99991  -9.99840  -9.99790  -9.99676
  Beta  occ. eigenvalues --   -9.99592  -9.99529  -9.99124  -9.99076  -9.98658
  Beta  occ. eigenvalues --   -9.98202  -9.98167  -9.98063  -9.98006  -9.97888
  Beta  occ. eigenvalues --   -9.97805  -9.97599  -9.97562  -9.97544  -9.97330
  Beta  occ. eigenvalues --   -9.97270  -9.97145  -9.96983  -7.77740  -7.77687
  Beta  occ. eigenvalues --   -7.77459  -5.79778  -5.79734  -5.79505  -5.79368
  Beta  occ. eigenvalues --   -5.79326  -5.79097  -5.79036  -5.78960  -5.78732
  Beta  occ. eigenvalues --   -0.95009  -0.94824  -0.94791  -0.86269  -0.85971
  Beta  occ. eigenvalues --   -0.84837  -0.81317  -0.80915  -0.79641  -0.78090
  Beta  occ. eigenvalues --   -0.77577  -0.76591  -0.75119  -0.75048  -0.74304
  Beta  occ. eigenvalues --   -0.73539  -0.71942  -0.70388  -0.65643  -0.64325
  Beta  occ. eigenvalues --   -0.63213  -0.62733  -0.61625  -0.61287  -0.59353
  Beta  occ. eigenvalues --   -0.58533  -0.57583  -0.56786  -0.56567  -0.56028
  Beta  occ. eigenvalues --   -0.53843  -0.53176  -0.51914  -0.50878  -0.48992
  Beta  occ. eigenvalues --   -0.48776  -0.48312  -0.47780  -0.47241  -0.46907
  Beta  occ. eigenvalues --   -0.46032  -0.45394  -0.44788  -0.44487  -0.44347
  Beta  occ. eigenvalues --   -0.44200  -0.44111  -0.43722  -0.43576  -0.43202
  Beta  occ. eigenvalues --   -0.42945  -0.42527  -0.41186  -0.40369  -0.40064
  Beta  occ. eigenvalues --   -0.39515  -0.39251  -0.39060  -0.38404  -0.38023
  Beta  occ. eigenvalues --   -0.37081  -0.36556  -0.36320  -0.36051  -0.35040
  Beta  occ. eigenvalues --   -0.33493  -0.31843  -0.31321  -0.31232  -0.30544
  Beta  occ. eigenvalues --   -0.29971  -0.29847  -0.29727  -0.29599  -0.29403
  Beta  occ. eigenvalues --   -0.29166  -0.27809  -0.25539  -0.23557
  Beta virt. eigenvalues --   -0.05875  -0.03828  -0.01701   0.00312   0.00372
  Beta virt. eigenvalues --    0.01084   0.01579   0.03309   0.03840   0.04225
  Beta virt. eigenvalues --    0.04435   0.05525   0.06759   0.07903   0.08637

 Mulliken charges and spin densities:
               1          2
     1  C    0.029987   0.000000
     2  C    0.035421  -0.000000
     3  C   -0.017098   0.000000
     4  C    0.025886  -0.000000
     5  C    0.042989  -0.000000
     6  C    0.039807  -0.000000
     7  C    0.004426   0.000000
     8  N   -0.178673  -0.000000
     9  C    0.129297  -0.000000
    10  C   -0.193436  -0.000000
    11  S    0.120342  -0.000000
    12  C    0.088288  -0.000000
    13  C    0.003297   0.000000
    14  C   -0.004842  -0.000000
    15  C    0.041944  -0.000000
    16  C    0.053780   0.000000
    17  C    0.009687   0.000000
    18  C   -0.000165   0.000000
    19  N   -0.179576  -0.000000
    20  C    0.130571  -0.000000
    21  C   -0.192088   0.000000
    22  S    0.119320  -0.000000
    23  C    0.086339   0.000000
    24  C    0.003862   0.000000
    25  C   -0.003155  -0.000000
    26  C    0.051674   0.000000
    27  C    0.053018  -0.000000
    28  C    0.007466  -0.000000
    29  C   -0.021030  -0.000000
    30  N   -0.181913   0.000000
    31  C    0.130407  -0.000000
    32  C   -0.157117  -0.000000
    33  S    0.135096   0.000000
    34  H   -0.017462  -0.000000
    35  H   -0.016609   0.000000
    36  H   -0.018498   0.000000
    37  H   -0.021929   0.000000
    38  H   -0.014630   0.000000
    39  H    0.000901  -0.000000
    40  H   -0.024419   0.000000
    41  H   -0.017818   0.000000
    42  H   -0.019960  -0.000000
    43  H   -0.016094   0.000000
    44  H    0.002705  -0.000000
    45  H   -0.018617   0.000000
    46  H   -0.018258  -0.000000
    47  H   -0.019454  -0.000000
    48  H   -0.022015  -0.000000
    49  H    0.002436  -0.000000
    50  H    0.025909   0.000000
 Sum of Mulliken charges =  -0.00000  -0.00000

 Dipole moment (field-independent basis, Debye):
    X=             -1.0044    Y=             -0.8790    Z=             -0.1743  Tot=              1.3461
 Quadrupole moment (field-independent basis, Debye-Ang):
   XX=           -164.0088   YY=           -197.5269   ZZ=           -218.7567
   XY=             16.7718   XZ=             -1.9828   YZ=             -0.8597

 Normal termination of Gaussian 16 at Fri Jul 24 16:19:05 2020.
