 Gaussian 16, Revision A.03,
 Gaussian 16:  EM64L-G16RevA.03 25-Dec-2016

 ---------------------------------------------------------------
 #P uLC-wPBE/cc-pVDZ iop(3/107=0073400000, 3/108=0073400000) opt
 ---------------------------------------------------------------

 --------------
 H22 C50 S5 F10
 --------------
 Symbolic Z-matrix:
 Charge =  0 Multiplicity = 1

 SCF Done:  E(ULC-wPBE) =  -4904.40835541     A.U. after   18 cycles
 SCF Done:  E(ULC-wPBE) =  -4904.49271103     A.U. after   14 cycles
 SCF Done:  E(ULC-wPBE) =  -4904.56142276     A.U. after   15 cycles
 SCF Done:  E(ULC-wPBE) =  -4904.57872934     A.U. after   15 cycles
 SCF Done:  E(ULC-wPBE) =  -4904.58790588     A.U. after   16 cycles
 SCF Done:  E(ULC-wPBE) =  -4904.59334521     A.U. after   15 cycles
 SCF Done:  E(ULC-wPBE) =  -4904.59838196     A.U. after   18 cycles
 SCF Done:  E(ULC-wPBE) =  -4904.60020970     A.U. after   14 cycles
 SCF Done:  E(ULC-wPBE) =  -4904.60107000     A.U. after   14 cycles
 SCF Done:  E(ULC-wPBE) =  -4904.60127084     A.U. after   13 cycles
 SCF Done:  E(ULC-wPBE) =  -4904.60151300     A.U. after    7 cycles
 SCF Done:  E(ULC-wPBE) =  -4904.60151313     A.U. after    8 cycles
 SCF Done:  E(ULC-wPBE) =  -4904.60151322     A.U. after    8 cycles
 SCF Done:  E(ULC-wPBE) =  -4904.60151333     A.U. after    8 cycles
 SCF Done:  E(ULC-wPBE) =  -4904.60151331     A.U. after    7 cycles
 SCF Done:  E(ULC-wPBE) =  -4904.60151334     A.U. after    7 cycles
 SCF Done:  E(ULC-wPBE) =  -4904.60151324     A.U. after    7 cycles
 SCF Done:  E(ULC-wPBE) =  -4904.60151321     A.U. after    7 cycles
 SCF Done:  E(ULC-wPBE) =  -4904.60151333     A.U. after    6 cycles
 SCF Done:  E(ULC-wPBE) =  -4904.60151335     A.U. after    6 cycles
 Optimization completed.
    -- Stationary point found.

                         Standard orientation:
 ---------------------------------------------------------------------
 Center     Atomic      Atomic             Coordinates (Angstroms)
 Number     Number       Type             X           Y           Z
 ---------------------------------------------------------------------
      1          6           0       19.128247   -2.220067    0.120938
      2          6           0       18.457389   -1.013764    0.356538
      3          6           0       17.070004   -0.975032    0.228329
      4          9           0       16.455186    0.215027    0.467448
      5          6           0       16.264402   -2.086052   -0.131205
      6          6           0       17.009997   -3.274854   -0.353432
      7          9           0       16.353272   -4.412974   -0.701246
      8          6           0       18.396905   -3.359864   -0.236714
      9          6           0       14.805879   -2.021229   -0.263365
     10          6           0       13.918177   -3.028935   -0.650304
     11          6           0       12.562719   -2.624691   -0.665719
     12          6           0       12.368892   -1.298427   -0.293394
     13         16           0       13.903068   -0.545530    0.087490
     14          6           0       11.115313   -0.550012   -0.201433
     15          6           0       11.091631    0.858086   -0.088235
     16          6           0        9.882955    1.539478   -0.004671
     17          9           0        9.954965    2.892942    0.096673
     18          6           0        8.606354    0.916274   -0.029101
     19          6           0        8.689026   -0.495843   -0.147180
     20          9           0        7.528239   -1.205657   -0.176648
     21          6           0        9.871397   -1.219934   -0.227272
     22          6           0        7.348207    1.656056    0.059590
     23          6           0        7.152531    3.030932    0.223964
     24          6           0        5.792446    3.415738    0.260967
     25          6           0        4.904041    2.352960    0.127696
     26         16           0        5.782232    0.848203   -0.051524
     27          6           0        3.441896    2.380474    0.124638
     28          6           0        2.743313    3.602785   -0.004231
     29          6           0        1.354267    3.624001   -0.000604
     30          9           0        0.766012    4.842584   -0.135149
     31          6           0        0.531594    2.471101    0.121658
     32          6           0        1.283218    1.273807    0.242151
     33          9           0        0.605613    0.100722    0.367409
     34          6           0        2.670856    1.203566    0.249589
     35          6           0       -0.929623    2.521862    0.121514
     36          6           0       -1.765514    3.640953    0.053719
     37          6           0       -3.144397    3.328081    0.067998
     38          6           0       -3.410243    1.964500    0.147997
     39         16           0       -1.912945    1.057429    0.201021
     40          6           0       -4.706405    1.288265    0.187519
     41          6           0       -5.893406    1.983306   -0.136558
     42          6           0       -7.118129    1.330297   -0.088215
     43          9           0       -8.219111    2.060982   -0.414647
     44          6           0       -7.300475   -0.032496    0.264791
     45          6           0       -6.077528   -0.684480    0.578215
     46          9           0       -6.102066   -1.993928    0.942361
     47          6           0       -4.830105   -0.071833    0.549714
     48          6           0       -8.600925   -0.699782    0.302066
     49          6           0       -8.890021   -2.035271    0.598861
     50          6           0      -10.268274   -2.348487    0.548557
     51          6           0      -11.077958   -1.268326    0.211706
     52         16           0      -10.102775    0.164302   -0.040086
     53          6           0      -12.533108   -1.228491    0.064326
     54          6           0      -13.192077   -0.149232   -0.564929
     55          6           0      -14.577038   -0.143504   -0.690051
     56          9           0      -15.123829    0.934250   -1.313267
     57          6           0      -15.430919   -1.178235   -0.224128
     58          6           0      -14.716953   -2.236091    0.395964
     59          9           0      -15.427505   -3.286693    0.890480
     60          6           0      -13.336985   -2.283843    0.549972
     61          6           0      -16.887696   -1.149422   -0.369993
     62          6           0      -17.688365   -0.155513   -0.936869
     63          6           0      -19.077676   -0.455965   -0.917014
     64          6           0      -19.351039   -1.678397   -0.337634
     65         16           0      -17.911355   -2.478087    0.193737
     66          1           0       20.220919   -2.272625    0.216568
     67          1           0       18.983931   -0.093636    0.639784
     68          1           0       18.877530   -4.327382   -0.429945
     69          1           0       14.247181   -4.034643   -0.922826
     70          1           0       11.744705   -3.290853   -0.966782
     71          1           0       12.014347    1.453379   -0.078504
     72          1           0        9.800000   -2.312360   -0.292474
     73          1           0        7.979888    3.738087    0.321792
     74          1           0        5.470166    4.454554    0.404333
     75          1           0        3.266043    4.559065   -0.127922
     76          1           0        3.134243    0.215224    0.368066
     77          1           0       -1.381875    4.662892    0.002222
     78          1           0       -3.930245    4.093163    0.041908
     79          1           0       -5.885506    3.034935   -0.447653
     80          1           0       -3.958271   -0.677224    0.831358
     81          1           0       -8.115854   -2.768071    0.839498
     82          1           0      -10.658712   -3.356743    0.734585
     83          1           0      -12.638590    0.701593   -0.984141
     84          1           0      -12.909060   -3.149358    1.070232
     85          1           0      -17.277153    0.766814   -1.354882
     86          1           0      -19.850223    0.211632   -1.318707
     87          1           0      -20.322832   -2.161531   -0.187799
 ---------------------------------------------------------------------

 The electronic state is 1-A.
 Alpha  occ. eigenvalues --  -88.15418 -88.15242 -88.15048 -88.14735 -88.14103
 Alpha  occ. eigenvalues --  -24.35163 -24.35020 -24.34951 -24.34837 -24.34812
 Alpha  occ. eigenvalues --  -24.34654 -24.34602 -24.34397 -24.34090 -24.33899
 Alpha  occ. eigenvalues --  -10.04572 -10.04508 -10.04486 -10.04419 -10.04311
 Alpha  occ. eigenvalues --  -10.04243 -10.04063 -10.03996 -10.03553 -10.03488
 Alpha  occ. eigenvalues --   -9.99733  -9.99597  -9.99401  -9.99120  -9.99075
 Alpha  occ. eigenvalues --   -9.98879  -9.98842  -9.98760  -9.98723  -9.98664
 Alpha  occ. eigenvalues --   -9.98589  -9.98527  -9.98422  -9.98347  -9.98211
 Alpha  occ. eigenvalues --   -9.98204  -9.97924  -9.97884  -9.97351  -9.96652
 Alpha  occ. eigenvalues --   -9.96625  -9.96613  -9.96521  -9.96483  -9.96333
 Alpha  occ. eigenvalues --   -9.96332  -9.96126  -9.96085  -9.95999  -9.95859
 Alpha  occ. eigenvalues --   -9.95859  -9.95697  -9.95696  -9.95658  -9.95657
 Alpha  occ. eigenvalues --   -9.95512  -9.95316  -9.95215  -9.94557  -9.94455
 Alpha  occ. eigenvalues --   -7.75637  -7.75463  -7.75268  -7.74955  -7.74314
 Alpha  occ. eigenvalues --   -5.77745  -5.77571  -5.77376  -5.77287  -5.77114
 Alpha  occ. eigenvalues --   -5.77064  -5.76919  -5.76893  -5.76715  -5.76606
 Alpha  occ. eigenvalues --   -5.76520  -5.76413  -5.76208  -5.75950  -5.75595
 Alpha  occ. eigenvalues --   -1.18292  -1.18153  -1.18127  -1.17997  -1.17978
 Alpha  occ. eigenvalues --   -1.17824  -1.17731  -1.17577  -1.17220  -1.17070
 Alpha  occ. eigenvalues --   -0.87053  -0.86773  -0.86491  -0.86128  -0.85290
 Alpha  occ. eigenvalues --   -0.85037  -0.84636  -0.84139  -0.83711  -0.83133
 Alpha  occ. eigenvalues --   -0.78946  -0.78182  -0.77269  -0.76299  -0.75710
 Alpha  occ. eigenvalues --   -0.74018  -0.73852  -0.73832  -0.73619  -0.73165
 Alpha  occ. eigenvalues --   -0.72674  -0.72185  -0.71897  -0.71865  -0.71523
 Alpha  occ. eigenvalues --   -0.71153  -0.70712  -0.69956  -0.68633  -0.67342
 Alpha  occ. eigenvalues --   -0.64944  -0.63742  -0.62744  -0.62512  -0.62306
 Alpha  occ. eigenvalues --   -0.62046  -0.61817  -0.61455  -0.61244  -0.60837
 Alpha  occ. eigenvalues --   -0.57711  -0.57545  -0.57245  -0.56940  -0.56705
 Alpha  occ. eigenvalues --   -0.56502  -0.56006  -0.55794  -0.55255  -0.54677
 Alpha  occ. eigenvalues --   -0.54579  -0.53373  -0.53122  -0.52840  -0.52440
 Alpha  occ. eigenvalues --   -0.51743  -0.51503  -0.51276  -0.50929  -0.50548
 Alpha  occ. eigenvalues --   -0.50362  -0.50220  -0.50048  -0.49721  -0.49330
 Alpha  occ. eigenvalues --   -0.49179  -0.49071  -0.48936  -0.48643  -0.48291
 Alpha  occ. eigenvalues --   -0.48093  -0.47301  -0.47273  -0.47201  -0.47032
 Alpha  occ. eigenvalues --   -0.46785  -0.46586  -0.46285  -0.45684  -0.45456
 Alpha  occ. eigenvalues --   -0.45319  -0.45152  -0.44909  -0.44745  -0.44409
 Alpha  occ. eigenvalues --   -0.43759  -0.43381  -0.43107  -0.42974  -0.42634
 Alpha  occ. eigenvalues --   -0.42256  -0.41968  -0.41545  -0.41152  -0.41062
 Alpha  occ. eigenvalues --   -0.40729  -0.40633  -0.40519  -0.40438  -0.40278
 Alpha  occ. eigenvalues --   -0.40204  -0.39972  -0.39831  -0.39658  -0.39523
 Alpha  occ. eigenvalues --   -0.39408  -0.39166  -0.39031  -0.38888  -0.38328
 Alpha  occ. eigenvalues --   -0.38241  -0.38016  -0.37951  -0.37729  -0.37531
 Alpha  occ. eigenvalues --   -0.37477  -0.37153  -0.37024  -0.36742  -0.36391
 Alpha  occ. eigenvalues --   -0.36341  -0.36106  -0.36004  -0.35823  -0.35722
 Alpha  occ. eigenvalues --   -0.35536  -0.34281  -0.34090  -0.33924  -0.33606
 Alpha  occ. eigenvalues --   -0.33288  -0.33223  -0.32334  -0.31278  -0.30134
 Alpha  occ. eigenvalues --   -0.29189  -0.27945  -0.27769  -0.27578  -0.27393
 Alpha  occ. eigenvalues --   -0.27236  -0.27184  -0.27013  -0.26789  -0.26409
 Alpha  occ. eigenvalues --   -0.26286  -0.26193  -0.24919  -0.23490  -0.22106
 Alpha  occ. eigenvalues --   -0.21004
 Alpha virt. eigenvalues --   -0.07788  -0.06561  -0.05101  -0.03579  -0.02128
 Alpha virt. eigenvalues --   -0.01090  -0.00999  -0.00848  -0.00631  -0.00544
 Alpha virt. eigenvalues --   -0.00185   0.00845   0.02143   0.02722   0.03086

  Beta  occ. eigenvalues --  -88.15418 -88.15242 -88.15048 -88.14735 -88.14103
  Beta  occ. eigenvalues --  -24.35163 -24.35020 -24.34951 -24.34837 -24.34812
  Beta  occ. eigenvalues --  -24.34654 -24.34602 -24.34397 -24.34090 -24.33899
  Beta  occ. eigenvalues --  -10.04572 -10.04508 -10.04486 -10.04419 -10.04311
  Beta  occ. eigenvalues --  -10.04243 -10.04063 -10.03996 -10.03553 -10.03488
  Beta  occ. eigenvalues --   -9.99733  -9.99597  -9.99401  -9.99120  -9.99075
  Beta  occ. eigenvalues --   -9.98879  -9.98842  -9.98760  -9.98723  -9.98664
  Beta  occ. eigenvalues --   -9.98589  -9.98527  -9.98422  -9.98347  -9.98211
  Beta  occ. eigenvalues --   -9.98204  -9.97924  -9.97884  -9.97351  -9.96652
  Beta  occ. eigenvalues --   -9.96625  -9.96613  -9.96521  -9.96483  -9.96333
  Beta  occ. eigenvalues --   -9.96332  -9.96126  -9.96085  -9.95999  -9.95859
  Beta  occ. eigenvalues --   -9.95859  -9.95697  -9.95696  -9.95658  -9.95657
  Beta  occ. eigenvalues --   -9.95512  -9.95316  -9.95215  -9.94557  -9.94455
  Beta  occ. eigenvalues --   -7.75637  -7.75463  -7.75268  -7.74955  -7.74314
  Beta  occ. eigenvalues --   -5.77745  -5.77571  -5.77376  -5.77287  -5.77114
  Beta  occ. eigenvalues --   -5.77064  -5.76919  -5.76893  -5.76715  -5.76606
  Beta  occ. eigenvalues --   -5.76520  -5.76413  -5.76208  -5.75950  -5.75595
  Beta  occ. eigenvalues --   -1.18292  -1.18153  -1.18127  -1.17997  -1.17978
  Beta  occ. eigenvalues --   -1.17824  -1.17731  -1.17577  -1.17220  -1.17070
  Beta  occ. eigenvalues --   -0.87053  -0.86773  -0.86491  -0.86128  -0.85290
  Beta  occ. eigenvalues --   -0.85037  -0.84636  -0.84139  -0.83711  -0.83133
  Beta  occ. eigenvalues --   -0.78946  -0.78182  -0.77269  -0.76299  -0.75710
  Beta  occ. eigenvalues --   -0.74018  -0.73852  -0.73832  -0.73619  -0.73165
  Beta  occ. eigenvalues --   -0.72674  -0.72185  -0.71897  -0.71865  -0.71523
  Beta  occ. eigenvalues --   -0.71153  -0.70712  -0.69956  -0.68633  -0.67342
  Beta  occ. eigenvalues --   -0.64944  -0.63742  -0.62744  -0.62512  -0.62306
  Beta  occ. eigenvalues --   -0.62046  -0.61817  -0.61455  -0.61244  -0.60837
  Beta  occ. eigenvalues --   -0.57711  -0.57545  -0.57245  -0.56940  -0.56705
  Beta  occ. eigenvalues --   -0.56502  -0.56006  -0.55794  -0.55255  -0.54677
  Beta  occ. eigenvalues --   -0.54579  -0.53373  -0.53122  -0.52840  -0.52440
  Beta  occ. eigenvalues --   -0.51743  -0.51503  -0.51276  -0.50929  -0.50548
  Beta  occ. eigenvalues --   -0.50362  -0.50220  -0.50048  -0.49721  -0.49330
  Beta  occ. eigenvalues --   -0.49179  -0.49071  -0.48936  -0.48643  -0.48291
  Beta  occ. eigenvalues --   -0.48093  -0.47301  -0.47273  -0.47201  -0.47032
  Beta  occ. eigenvalues --   -0.46785  -0.46586  -0.46285  -0.45684  -0.45456
  Beta  occ. eigenvalues --   -0.45319  -0.45152  -0.44909  -0.44745  -0.44409
  Beta  occ. eigenvalues --   -0.43759  -0.43381  -0.43107  -0.42974  -0.42634
  Beta  occ. eigenvalues --   -0.42256  -0.41968  -0.41545  -0.41152  -0.41062
  Beta  occ. eigenvalues --   -0.40729  -0.40633  -0.40519  -0.40438  -0.40278
  Beta  occ. eigenvalues --   -0.40204  -0.39972  -0.39831  -0.39658  -0.39523
  Beta  occ. eigenvalues --   -0.39408  -0.39166  -0.39031  -0.38888  -0.38328
  Beta  occ. eigenvalues --   -0.38241  -0.38016  -0.37951  -0.37729  -0.37531
  Beta  occ. eigenvalues --   -0.37477  -0.37153  -0.37024  -0.36742  -0.36391
  Beta  occ. eigenvalues --   -0.36341  -0.36106  -0.36004  -0.35823  -0.35722
  Beta  occ. eigenvalues --   -0.35536  -0.34281  -0.34090  -0.33924  -0.33606
  Beta  occ. eigenvalues --   -0.33288  -0.33223  -0.32334  -0.31278  -0.30134
  Beta  occ. eigenvalues --   -0.29189  -0.27945  -0.27769  -0.27578  -0.27393
  Beta  occ. eigenvalues --   -0.27236  -0.27184  -0.27013  -0.26789  -0.26409
  Beta  occ. eigenvalues --   -0.26286  -0.26193  -0.24919  -0.23490  -0.22106
  Beta  occ. eigenvalues --   -0.21004
  Beta virt. eigenvalues --   -0.07788  -0.06561  -0.05101  -0.03579  -0.02128
  Beta virt. eigenvalues --   -0.01090  -0.00999  -0.00848  -0.00631  -0.00544
  Beta virt. eigenvalues --   -0.00185   0.00845   0.02143   0.02722   0.03086

 Mulliken charges and spin densities:
               1          2
     1  C    0.045202  -0.000000
     2  C    0.042116  -0.000000
     3  C    0.060792  -0.000000
     4  F   -0.121957   0.000000
     5  C    0.054847   0.000000
     6  C    0.055001  -0.000000
     7  F   -0.124061   0.000000
     8  C    0.039309  -0.000000
     9  C   -0.118045  -0.000000
    10  C    0.043175  -0.000000
    11  C    0.043611   0.000000
    12  C   -0.140065   0.000000
    13  S    0.140945   0.000000
    14  C    0.127562  -0.000000
    15  C    0.006551   0.000000
    16  C    0.059938  -0.000000
    17  F   -0.123174  -0.000000
    18  C    0.060793   0.000000
    19  C    0.069267  -0.000000
    20  F   -0.121924   0.000000
    21  C    0.007324   0.000000
    22  C   -0.115923   0.000000
    23  C    0.039688  -0.000000
    24  C    0.044360  -0.000000
    25  C   -0.140121   0.000000
    26  S    0.139730  -0.000000
    27  C    0.128542   0.000000
    28  C    0.004021   0.000000
    29  C    0.063449  -0.000000
    30  F   -0.124547  -0.000000
    31  C    0.061409  -0.000000
    32  C    0.065691  -0.000000
    33  F   -0.121065   0.000000
    34  C    0.008070   0.000000
    35  C   -0.116446   0.000000
    36  C    0.038801  -0.000000
    37  C    0.045041   0.000000
    38  C   -0.140065  -0.000000
    39  S    0.139620  -0.000000
    40  C    0.127132   0.000000
    41  C    0.006719  -0.000000
    42  C    0.068776   0.000000
    43  F   -0.122445   0.000000
    44  C    0.061282  -0.000000
    45  C    0.059479   0.000000
    46  F   -0.123659  -0.000000
    47  C    0.005886  -0.000000
    48  C   -0.116965   0.000000
    49  C    0.038349   0.000000
    50  C    0.044734   0.000000
    51  C   -0.139026  -0.000000
    52  S    0.137879   0.000000
    53  C    0.124902   0.000000
    54  C    0.004339  -0.000000
    55  C    0.060139   0.000000
    56  F   -0.124992   0.000000
    57  C    0.071720   0.000000
    58  C    0.071721   0.000000
    59  F   -0.124214  -0.000000
    60  C    0.003974  -0.000000
    61  C   -0.131933  -0.000000
    62  C    0.005589   0.000000
    63  C    0.082501   0.000000
    64  C   -0.123399   0.000000
    65  S    0.146765  -0.000000
    66  H   -0.005092   0.000000
    67  H   -0.001363   0.000000
    68  H   -0.001256   0.000000
    69  H   -0.015008  -0.000000
    70  H   -0.017609   0.000000
    71  H   -0.003608   0.000000
    72  H   -0.015951   0.000000
    73  H   -0.015773  -0.000000
    74  H   -0.018195  -0.000000
    75  H   -0.016755   0.000000
    76  H   -0.003416   0.000000
    77  H   -0.016546   0.000000
    78  H   -0.018335   0.000000
    79  H   -0.016953   0.000000
    80  H   -0.004122  -0.000000
    81  H   -0.016793  -0.000000
    82  H   -0.019143   0.000000
    83  H   -0.005820  -0.000000
    84  H   -0.018326   0.000000
    85  H   -0.014399  -0.000000
    86  H   -0.017169   0.000000
    87  H    0.018915   0.000000
 Sum of Mulliken charges =  -0.00000  -0.00000

 Dipole moment (field-independent basis, Debye):
    X=              8.0078    Y=             -0.0251    Z=             -0.0713  Tot=              8.0081
 Quadrupole moment (field-independent basis, Debye-Ang):
   XX=           -296.0395   YY=           -372.8592   ZZ=           -406.3890
   XY=            -19.7588   XZ=              2.7855   YZ=             -1.2426

 Normal termination of Gaussian 16 at Sat Jul 25 17:08:06 2020.
