 Gaussian 16, Revision A.03,
 Gaussian 16:  EM64L-G16RevA.03 25-Dec-2016

 ---------------------------------------------------------------
 #P uLC-wPBE/cc-pVDZ iop(3/107=0178000000, 3/108=0178000000) opt
 ---------------------------------------------------------------

 -------------
 H17 C30 S3 F3
 -------------
 Symbolic Z-matrix:
 Charge =  0 Multiplicity = 1

 SCF Done:  E(ULC-wPBE) =  -2645.79750475     A.U. after   16 cycles
 SCF Done:  E(ULC-wPBE) =  -2645.85545256     A.U. after   14 cycles
 SCF Done:  E(ULC-wPBE) =  -2645.89559742     A.U. after   15 cycles
 SCF Done:  E(ULC-wPBE) =  -2645.89869119     A.U. after   13 cycles
 SCF Done:  E(ULC-wPBE) =  -2645.90017047     A.U. after   13 cycles
 SCF Done:  E(ULC-wPBE) =  -2645.90182528     A.U. after   14 cycles
 SCF Done:  E(ULC-wPBE) =  -2645.90249475     A.U. after   13 cycles
 SCF Done:  E(ULC-wPBE) =  -2645.90305441     A.U. after   13 cycles
 SCF Done:  E(ULC-wPBE) =  -2645.90314578     A.U. after   12 cycles
 SCF Done:  E(ULC-wPBE) =  -2645.90320547     A.U. after   12 cycles
 SCF Done:  E(ULC-wPBE) =  -2645.90324854     A.U. after   12 cycles
 SCF Done:  E(ULC-wPBE) =  -2645.90328044     A.U. after   12 cycles
 SCF Done:  E(ULC-wPBE) =  -2645.90329977     A.U. after   12 cycles
 SCF Done:  E(ULC-wPBE) =  -2645.90330397     A.U. after   11 cycles
 SCF Done:  E(ULC-wPBE) =  -2645.90330548     A.U. after   10 cycles
 SCF Done:  E(ULC-wPBE) =  -2645.90330588     A.U. after    9 cycles
 SCF Done:  E(ULC-wPBE) =  -2645.90330639     A.U. after    9 cycles
 SCF Done:  E(ULC-wPBE) =  -2645.90330659     A.U. after    8 cycles
 SCF Done:  E(ULC-wPBE) =  -2645.90330678     A.U. after    7 cycles
 SCF Done:  E(ULC-wPBE) =  -2645.90330679     A.U. after    6 cycles
 Optimization completed.
    -- Stationary point found.

                         Standard orientation:
 ---------------------------------------------------------------------
 Center     Atomic      Atomic             Coordinates (Angstroms)
 Number     Number       Type             X           Y           Z
 ---------------------------------------------------------------------
      1          6           0       10.976779   -2.075266   -0.432071
      2          6           0       10.986648   -0.676485   -0.511771
      3          6           0        9.798324    0.043080   -0.371860
      4          6           0        8.561677   -0.598738   -0.138122
      5          6           0        8.597389   -2.003906   -0.075195
      6          9           0        7.438582   -2.683328    0.128864
      7          6           0        9.769068   -2.744599   -0.215315
      8          6           0        7.329492    0.187389    0.043808
      9          6           0        7.239859    1.536771    0.351278
     10          6           0        5.907276    2.021116    0.409394
     11          6           0        4.959304    1.046317    0.147903
     12         16           0        5.730003   -0.484264   -0.170154
     13          6           0        3.494081    1.180828    0.133335
     14          6           0        2.887579    2.421691   -0.156472
     15          6           0        1.501714    2.558595   -0.162955
     16          6           0        0.636051    1.476863    0.115065
     17          6           0        1.270514    0.250161    0.382138
     18          9           0        0.507145   -0.841756    0.646060
     19          6           0        2.651343    0.087081    0.401335
     20          6           0       -0.823013    1.659627    0.131053
     21          6           0       -1.512339    2.861896    0.196033
     22          6           0       -2.922529    2.714249    0.145778
     23          6           0       -3.331283    1.395189    0.043290
     24         16           0       -1.952191    0.329973    0.009762
     25          6           0       -4.703986    0.868518   -0.019832
     26          6           0       -5.754525    1.656088   -0.536421
     27          6           0       -7.057609    1.166717   -0.590781
     28          6           0       -7.396329   -0.128066   -0.138587
     29          6           0       -6.324564   -0.894203    0.353727
     30          9           0       -6.565441   -2.155721    0.795388
     31          6           0       -5.015882   -0.428939    0.424696
     32          6           0       -8.788014   -0.605300   -0.179344
     33          6           0       -9.930271    0.169758   -0.312724
     34          6           0      -11.132326   -0.590550   -0.369198
     35          6           0      -10.900938   -1.944601   -0.279922
     36         16           0       -9.220014   -2.300478   -0.113451
     37          1           0       11.906219   -2.648186   -0.546333
     38          1           0       11.926760   -0.140039   -0.694354
     39          1           0        9.816062    1.136647   -0.461266
     40          1           0        9.709876   -3.838110   -0.150469
     41          1           0        8.116471    2.161008    0.557460
     42          1           0        5.647415    3.052263    0.674484
     43          1           0        3.513936    3.285812   -0.411030
     44          1           0        1.065186    3.532259   -0.418357
     45          1           0        3.052307   -0.904364    0.647971
     46          1           0       -1.013115    3.831286    0.303989
     47          1           0       -3.623628    3.553170    0.221248
     48          1           0       -5.539420    2.657182   -0.930752
     49          1           0       -7.844806    1.796626   -1.023765
     50          1           0       -4.252653   -1.092530    0.851029
     51          1           0       -9.906617    1.264710   -0.350447
     52          1           0      -12.131838   -0.151410   -0.464685
     53          1           0      -11.630424   -2.760468   -0.285622
 ---------------------------------------------------------------------

 The electronic state is 1-A.
 Alpha  occ. eigenvalues --  -88.20473 -88.20319 -88.19874 -24.39553 -24.39538
 Alpha  occ. eigenvalues --  -24.39191 -10.09010 -10.08968 -10.08681 -10.04390
 Alpha  occ. eigenvalues --  -10.04274 -10.03931 -10.03772 -10.03689 -10.03418
 Alpha  occ. eigenvalues --  -10.03400 -10.03318 -10.03119 -10.02987 -10.02469
 Alpha  occ. eigenvalues --  -10.01998 -10.01939 -10.01867 -10.01675 -10.01673
 Alpha  occ. eigenvalues --  -10.01648 -10.01427 -10.01380 -10.01359 -10.01181
 Alpha  occ. eigenvalues --  -10.01159 -10.01107 -10.01058 -10.00944 -10.00538
 Alpha  occ. eigenvalues --  -10.00472  -7.80794  -7.80637  -7.80194  -5.82832
 Alpha  occ. eigenvalues --   -5.82676  -5.82359  -5.82225  -5.82203  -5.81983
 Alpha  occ. eigenvalues --   -5.81826  -5.81748  -5.81403  -1.22974  -1.22970
 Alpha  occ. eigenvalues --   -1.22634  -0.92653  -0.92305  -0.91392  -0.90291
 Alpha  occ. eigenvalues --   -0.89504  -0.88943  -0.83828  -0.82332  -0.80867
 Alpha  occ. eigenvalues --   -0.79225  -0.78930  -0.78854  -0.77707  -0.77468
 Alpha  occ. eigenvalues --   -0.77069  -0.76849  -0.74970  -0.72985  -0.68944
 Alpha  occ. eigenvalues --   -0.67796  -0.66984  -0.66404  -0.65900  -0.65450
 Alpha  occ. eigenvalues --   -0.61775  -0.61419  -0.60675  -0.60457  -0.60170
 Alpha  occ. eigenvalues --   -0.59338  -0.58333  -0.57592  -0.57042  -0.56002
 Alpha  occ. eigenvalues --   -0.54894  -0.54610  -0.53850  -0.53539  -0.53335
 Alpha  occ. eigenvalues --   -0.52659  -0.51527  -0.51092  -0.51033  -0.50737
 Alpha  occ. eigenvalues --   -0.49801  -0.49384  -0.48917  -0.48534  -0.46879
 Alpha  occ. eigenvalues --   -0.46245  -0.46060  -0.45664  -0.45356  -0.45020
 Alpha  occ. eigenvalues --   -0.44877  -0.44801  -0.44539  -0.44329  -0.44247
 Alpha  occ. eigenvalues --   -0.43905  -0.43495  -0.42980  -0.42559  -0.41848
 Alpha  occ. eigenvalues --   -0.41720  -0.41220  -0.41142  -0.40789  -0.40532
 Alpha  occ. eigenvalues --   -0.40206  -0.38702  -0.38472  -0.38166  -0.37028
 Alpha  occ. eigenvalues --   -0.35284  -0.33425  -0.31813  -0.31623  -0.31553
 Alpha  occ. eigenvalues --   -0.31462  -0.31272  -0.30917  -0.29349  -0.27021
 Alpha  occ. eigenvalues --   -0.24937
 Alpha virt. eigenvalues --   -0.02980  -0.00761   0.01652   0.03252   0.03501
 Alpha virt. eigenvalues --    0.03581   0.04613   0.06634   0.08219   0.08585
 Alpha virt. eigenvalues --    0.08645   0.09369   0.10338   0.10863   0.11138

  Beta  occ. eigenvalues --  -88.20473 -88.20319 -88.19874 -24.39553 -24.39538
  Beta  occ. eigenvalues --  -24.39191 -10.09010 -10.08968 -10.08681 -10.04390
  Beta  occ. eigenvalues --  -10.04274 -10.03931 -10.03772 -10.03689 -10.03418
  Beta  occ. eigenvalues --  -10.03400 -10.03318 -10.03119 -10.02987 -10.02469
  Beta  occ. eigenvalues --  -10.01998 -10.01939 -10.01867 -10.01675 -10.01673
  Beta  occ. eigenvalues --  -10.01648 -10.01427 -10.01380 -10.01359 -10.01181
  Beta  occ. eigenvalues --  -10.01159 -10.01107 -10.01058 -10.00944 -10.00538
  Beta  occ. eigenvalues --  -10.00472  -7.80794  -7.80637  -7.80194  -5.82832
  Beta  occ. eigenvalues --   -5.82676  -5.82359  -5.82225  -5.82203  -5.81983
  Beta  occ. eigenvalues --   -5.81826  -5.81748  -5.81403  -1.22974  -1.22970
  Beta  occ. eigenvalues --   -1.22634  -0.92653  -0.92305  -0.91392  -0.90291
  Beta  occ. eigenvalues --   -0.89504  -0.88943  -0.83828  -0.82332  -0.80867
  Beta  occ. eigenvalues --   -0.79225  -0.78930  -0.78854  -0.77707  -0.77468
  Beta  occ. eigenvalues --   -0.77069  -0.76849  -0.74970  -0.72985  -0.68944
  Beta  occ. eigenvalues --   -0.67796  -0.66984  -0.66404  -0.65900  -0.65450
  Beta  occ. eigenvalues --   -0.61775  -0.61419  -0.60675  -0.60457  -0.60170
  Beta  occ. eigenvalues --   -0.59338  -0.58333  -0.57592  -0.57042  -0.56002
  Beta  occ. eigenvalues --   -0.54894  -0.54610  -0.53850  -0.53539  -0.53335
  Beta  occ. eigenvalues --   -0.52659  -0.51527  -0.51092  -0.51033  -0.50737
  Beta  occ. eigenvalues --   -0.49801  -0.49384  -0.48917  -0.48534  -0.46879
  Beta  occ. eigenvalues --   -0.46245  -0.46060  -0.45664  -0.45356  -0.45020
  Beta  occ. eigenvalues --   -0.44877  -0.44801  -0.44539  -0.44329  -0.44247
  Beta  occ. eigenvalues --   -0.43905  -0.43495  -0.42980  -0.42559  -0.41848
  Beta  occ. eigenvalues --   -0.41720  -0.41220  -0.41142  -0.40789  -0.40532
  Beta  occ. eigenvalues --   -0.40206  -0.38702  -0.38472  -0.38166  -0.37028
  Beta  occ. eigenvalues --   -0.35284  -0.33425  -0.31813  -0.31623  -0.31553
  Beta  occ. eigenvalues --   -0.31462  -0.31272  -0.30917  -0.29349  -0.27021
  Beta  occ. eigenvalues --   -0.24937
  Beta virt. eigenvalues --   -0.02980  -0.00761   0.01652   0.03252   0.03501
  Beta virt. eigenvalues --    0.03581   0.04613   0.06634   0.08219   0.08585
  Beta virt. eigenvalues --    0.08645   0.09369   0.10338   0.10863   0.11138

 Mulliken charges and spin densities:
               1          2
     1  C    0.033197  -0.000000
     2  C    0.039081   0.000000
     3  C   -0.013023   0.000000
     4  C    0.039933   0.000000
     5  C    0.069531   0.000000
     6  F   -0.125158   0.000000
     7  C    0.031733  -0.000000
     8  C   -0.133175  -0.000000
     9  C    0.038200  -0.000000
    10  C    0.037684  -0.000000
    11  C   -0.147869  -0.000000
    12  S    0.165696  -0.000000
    13  C    0.089893   0.000000
    14  C    0.013385  -0.000000
    15  C   -0.005597   0.000000
    16  C    0.057434  -0.000000
    17  C    0.072446   0.000000
    18  F   -0.123274   0.000000
    19  C    0.012743   0.000000
    20  C   -0.135127   0.000000
    21  C    0.033519   0.000000
    22  C    0.039996   0.000000
    23  C   -0.146952  -0.000000
    24  S    0.164737  -0.000000
    25  C    0.087702   0.000000
    26  C    0.012314   0.000000
    27  C   -0.004349  -0.000000
    28  C    0.062995   0.000000
    29  C    0.075232  -0.000000
    30  F   -0.124133   0.000000
    31  C    0.010637  -0.000000
    32  C   -0.143800   0.000000
    33  C    0.007367  -0.000000
    34  C    0.071544   0.000000
    35  C   -0.127676  -0.000000
    36  S    0.163281  -0.000000
    37  H   -0.009073   0.000000
    38  H   -0.013709  -0.000000
    39  H   -0.016099  -0.000000
    40  H    0.000089  -0.000000
    41  H   -0.014821   0.000000
    42  H   -0.017599  -0.000000
    43  H   -0.025334   0.000000
    44  H   -0.016840  -0.000000
    45  H   -0.000916  -0.000000
    46  H   -0.015983   0.000000
    47  H   -0.018091   0.000000
    48  H   -0.026132   0.000000
    49  H   -0.016602  -0.000000
    50  H   -0.001763  -0.000000
    51  H   -0.014145  -0.000000
    52  H   -0.014377  -0.000000
    53  H    0.021250  -0.000000
 Sum of Mulliken charges =  -0.00000   0.00000

 Dipole moment (field-independent basis, Debye):
    X=              2.3527    Y=              3.1049    Z=             -0.6003  Tot=              3.9415
 Quadrupole moment (field-independent basis, Debye-Ang):
   XX=           -164.8577   YY=           -203.6661   ZZ=           -233.7307
   XY=             -5.7785   XZ=              2.3562   YZ=             -0.8820

 Normal termination of Gaussian 16 at Sat Jul 25 00:09:41 2020.
