 Gaussian 16, Revision A.03,
 Gaussian 16:  EM64L-G16RevA.03 25-Dec-2016

 ---------------------------------------------------------------
 #P uLC-wPBE/cc-pVDZ iop(3/107=0499100000, 3/108=0499100000) opt
 ---------------------------------------------------------------

 --------------
 H8 C9 S1 N2 O1
 --------------
 Symbolic Z-matrix:
 Charge =  0 Multiplicity = 1

 SCF Done:  E(ULC-wPBE) =  -930.180652958     A.U. after   16 cycles
 SCF Done:  E(ULC-wPBE) =  -930.213447709     A.U. after   14 cycles
 SCF Done:  E(ULC-wPBE) =  -930.219026140     A.U. after   15 cycles
 SCF Done:  E(ULC-wPBE) =  -930.220158035     A.U. after   16 cycles
 SCF Done:  E(ULC-wPBE) =  -930.221439031     A.U. after   14 cycles
 SCF Done:  E(ULC-wPBE) =  -930.221706300     A.U. after   13 cycles
 SCF Done:  E(ULC-wPBE) =  -930.221740967     A.U. after   13 cycles
 SCF Done:  E(ULC-wPBE) =  -930.221754884     A.U. after   11 cycles
 SCF Done:  E(ULC-wPBE) =  -930.221763591     A.U. after   11 cycles
 SCF Done:  E(ULC-wPBE) =  -930.221766624     A.U. after    9 cycles
 SCF Done:  E(ULC-wPBE) =  -930.221768681     A.U. after   10 cycles
 SCF Done:  E(ULC-wPBE) =  -930.221769187     A.U. after    9 cycles
 SCF Done:  E(ULC-wPBE) =  -930.221769245     A.U. after    8 cycles
 Optimization completed.
    -- Stationary point found.

                         Standard orientation:
 ---------------------------------------------------------------------
 Center     Atomic      Atomic             Coordinates (Angstroms)
 Number     Number       Type             X           Y           Z
 ---------------------------------------------------------------------
      1          6           0       -3.656456    0.468336   -0.000031
      2          6           0       -3.164645   -0.823655   -0.000076
      3          7           0       -1.872640   -1.089799   -0.000081
      4          6           0       -1.041414   -0.046312    0.000004
      5          7           0       -1.406127    1.230995    0.000124
      6          6           0       -2.705868    1.470757    0.000102
      7          6           0        0.378762   -0.379027    0.000007
      8          6           0        1.484299    0.435873   -0.000035
      9          8           0        1.390445    1.770163   -0.000054
     10          6           0        2.586077    2.501642   -0.000055
     11          6           0        2.704338   -0.303050    0.000015
     12          6           0        2.483201   -1.641162    0.000045
     13         16           0        0.835565   -2.039544    0.000026
     14          1           0       -4.720567    0.681117   -0.000130
     15          1           0       -3.835880   -1.683306   -0.000108
     16          1           0       -2.999780    2.521328    0.000194
     17          1           0        3.186746    2.295820   -0.895367
     18          1           0        3.186792    2.295761    0.895214
     19          1           0        2.300795    3.555055   -0.000002
     20          1           0        3.694240    0.137913    0.000040
     21          1           0        3.236660   -2.421071    0.000021
 ---------------------------------------------------------------------

 The electronic state is 1-A.
 Alpha  occ. eigenvalues --  -88.36739 -19.05945 -14.26750 -14.26323 -10.25383
 Alpha  occ. eigenvalues --  -10.24158 -10.22695 -10.22611 -10.22536 -10.20694
 Alpha  occ. eigenvalues --  -10.18842 -10.18265 -10.17806  -7.97681  -5.98737
 Alpha  occ. eigenvalues --   -5.98177  -5.97783  -1.25960  -1.18744  -1.08364
 Alpha  occ. eigenvalues --   -1.07274  -0.99176  -0.93326  -0.91763  -0.86461
 Alpha  occ. eigenvalues --   -0.82697  -0.81806  -0.73707  -0.71799  -0.70136
 Alpha  occ. eigenvalues --   -0.66383  -0.64749  -0.63036  -0.61240  -0.59193
 Alpha  occ. eigenvalues --   -0.58861  -0.57794  -0.55975  -0.54012  -0.53729
 Alpha  occ. eigenvalues --   -0.51910  -0.47770  -0.47057  -0.46449  -0.43845
 Alpha  occ. eigenvalues --   -0.43082  -0.42006  -0.37501  -0.35096  -0.31429
 Alpha virt. eigenvalues --    0.03479   0.06074   0.11531   0.15502   0.16583
 Alpha virt. eigenvalues --    0.17291   0.19303   0.19440   0.21156   0.21881
 Alpha virt. eigenvalues --    0.23304   0.23567   0.23872   0.26047   0.26761

  Beta  occ. eigenvalues --  -88.36739 -19.05945 -14.26750 -14.26323 -10.25383
  Beta  occ. eigenvalues --  -10.24158 -10.22695 -10.22611 -10.22536 -10.20694
  Beta  occ. eigenvalues --  -10.18842 -10.18265 -10.17806  -7.97681  -5.98737
  Beta  occ. eigenvalues --   -5.98177  -5.97783  -1.25960  -1.18744  -1.08364
  Beta  occ. eigenvalues --   -1.07274  -0.99176  -0.93326  -0.91763  -0.86461
  Beta  occ. eigenvalues --   -0.82697  -0.81806  -0.73707  -0.71799  -0.70136
  Beta  occ. eigenvalues --   -0.66383  -0.64749  -0.63036  -0.61240  -0.59193
  Beta  occ. eigenvalues --   -0.58861  -0.57794  -0.55975  -0.54012  -0.53729
  Beta  occ. eigenvalues --   -0.51910  -0.47770  -0.47057  -0.46449  -0.43845
  Beta  occ. eigenvalues --   -0.43082  -0.42006  -0.37501  -0.35096  -0.31429
  Beta virt. eigenvalues --    0.03479   0.06074   0.11531   0.15502   0.16583
  Beta virt. eigenvalues --    0.17291   0.19303   0.19440   0.21156   0.21881
  Beta virt. eigenvalues --    0.23304   0.23567   0.23872   0.26047   0.26761

 Mulliken charges and spin densities:
               1          2
     1  C   -0.133079   0.000000
     2  C    0.121068  -0.000000
     3  N   -0.244093  -0.000000
     4  C    0.247899   0.000000
     5  N   -0.208539  -0.000000
     6  C    0.113055   0.000000
     7  C   -0.256526  -0.000000
     8  C    0.160985  -0.000000
     9  O   -0.231617   0.000000
    10  C    0.024750   0.000000
    11  C   -0.024117   0.000000
    12  C   -0.143184  -0.000000
    13  S    0.210287   0.000000
    14  H    0.028546  -0.000000
    15  H    0.040112   0.000000
    16  H    0.036992   0.000000
    17  H    0.053649  -0.000000
    18  H    0.053649   0.000000
    19  H    0.071540  -0.000000
    20  H    0.025310   0.000000
    21  H    0.053313  -0.000000
 Sum of Mulliken charges =  -0.00000   0.00000

 Dipole moment (field-independent basis, Debye):
    X=              0.5891    Y=              1.2463    Z=             -0.0001  Tot=              1.3785
 Quadrupole moment (field-independent basis, Debye-Ang):
   XX=            -56.7575   YY=            -76.1732   ZZ=            -83.9863
   XY=              0.5565   XZ=              0.0002   YZ=             -0.0002

 Normal termination of Gaussian 16 at Fri Jul 24 03:35:47 2020.
