 Gaussian 16, Revision A.03,
 Gaussian 16:  EM64L-G16RevA.03 25-Dec-2016

 ---------------------------------------------------------------
 #P uLC-wPBE/cc-pVDZ iop(3/107=0199700000, 3/108=0199700000) opt
 ---------------------------------------------------------------

 -------------
 H32 C36 S3 O6
 -------------
 Symbolic Z-matrix:
 Charge =  0 Multiplicity = 1

 SCF Done:  E(ULC-wPBE) =  -3034.88966161     A.U. after   17 cycles
 SCF Done:  E(ULC-wPBE) =  -3034.95320532     A.U. after   15 cycles
 SCF Done:  E(ULC-wPBE) =  -3034.99278281     A.U. after   15 cycles
 SCF Done:  E(ULC-wPBE) =  -3035.00323114     A.U. after   14 cycles
 SCF Done:  E(ULC-wPBE) =  -3035.00675956     A.U. after   14 cycles
 SCF Done:  E(ULC-wPBE) =  -3035.00835047     A.U. after   15 cycles
 SCF Done:  E(ULC-wPBE) =  -3035.00971321     A.U. after   16 cycles
 SCF Done:  E(ULC-wPBE) =  -3035.01028648     A.U. after   15 cycles
 SCF Done:  E(ULC-wPBE) =  -3035.01079716     A.U. after   15 cycles
 SCF Done:  E(ULC-wPBE) =  -3035.01137136     A.U. after   17 cycles
 SCF Done:  E(ULC-wPBE) =  -3035.01279057     A.U. after   13 cycles
 SCF Done:  E(ULC-wPBE) =  -3035.01279429     A.U. after   14 cycles
 SCF Done:  E(ULC-wPBE) =  -3035.01281383     A.U. after   13 cycles
 SCF Done:  E(ULC-wPBE) =  -3035.01281796     A.U. after   11 cycles
 SCF Done:  E(ULC-wPBE) =  -3035.01281831     A.U. after    8 cycles
 SCF Done:  E(ULC-wPBE) =  -3035.01281832     A.U. after    8 cycles
 SCF Done:  E(ULC-wPBE) =  -3035.01281845     A.U. after    7 cycles
 SCF Done:  E(ULC-wPBE) =  -3035.01281844     A.U. after    7 cycles
 SCF Done:  E(ULC-wPBE) =  -3035.01281841     A.U. after    6 cycles
 SCF Done:  E(ULC-wPBE) =  -3035.01281845     A.U. after    6 cycles
 Optimization completed.
    -- Stationary point found.

                         Standard orientation:
 ---------------------------------------------------------------------
 Center     Atomic      Atomic             Coordinates (Angstroms)
 Number     Number       Type             X           Y           Z
 ---------------------------------------------------------------------
      1          6           0       11.280484    0.390353   -0.036616
      2          6           0       10.386506    1.306683   -0.590889
      3          6           0        9.022993    0.980053   -0.656987
      4          8           0        8.080945    1.820172   -1.176924
      5          6           0        8.501136    3.089489   -1.652800
      6          6           0        8.530841   -0.261208   -0.178589
      7          6           0        9.474121   -1.164229    0.379623
      8          8           0        8.972357   -2.348590    0.837942
      9          6           0        9.862566   -3.243490    1.487714
     10          6           0       10.839348   -0.839759    0.450858
     11          6           0        7.095315   -0.610526   -0.249270
     12          6           0        6.528269   -1.850675   -0.488323
     13          6           0        5.109454   -1.855685   -0.418433
     14          6           0        4.571234   -0.619684   -0.113257
     15         16           0        5.836082    0.561196    0.071648
     16          6           0        3.151917   -0.249801    0.031489
     17          6           0        2.224391   -1.204521    0.477367
     18          6           0        0.871645   -0.865119    0.603979
     19          8           0       -0.075300   -1.753295    1.024935
     20          6           0        0.323817   -3.084534    1.312719
     21          6           0        0.390393    0.437099    0.311408
     22          6           0        1.351554    1.383639   -0.132725
     23          8           0        0.876969    2.630515   -0.425093
     24          6           0        1.784019    3.584811   -0.956553
     25          6           0        2.704528    1.044429   -0.275341
     26          6           0       -1.035261    0.797975    0.454800
     27          6           0       -1.576458    2.022535    0.811902
     28          6           0       -2.996310    2.051693    0.791562
     29          6           0       -3.563914    0.853128    0.403022
     30         16           0       -2.326196   -0.332396    0.101153
     31          6           0       -4.992462    0.514405    0.269794
     32          6           0       -5.423310   -0.442117   -0.662279
     33          6           0       -6.785419   -0.748370   -0.779087
     34          8           0       -7.261098   -1.662793   -1.673796
     35          6           0       -6.335675   -2.316612   -2.528750
     36          6           0       -7.770117   -0.113141    0.019397
     37          6           0       -7.306605    0.855582    0.948570
     38          8           0       -8.264309    1.461370    1.711836
     39          6           0       -7.861571    2.501975    2.588819
     40          6           0       -5.943591    1.159173    1.075787
     41          6           0       -9.208497   -0.433081   -0.104573
     42          6           0      -10.170313   -0.447404    0.891743
     43          6           0      -11.483388   -0.733507    0.419660
     44          6           0      -11.522928   -0.922922   -0.941432
     45         16           0       -9.956949   -0.784609   -1.650249
     46          1           0       12.347885    0.641242    0.017226
     47          1           0       10.752099    2.266533   -0.968539
     48          1           0        9.216061    2.995431   -2.496497
     49          1           0        8.964853    3.698204   -0.848796
     50          1           0        7.586589    3.593379   -2.008448
     51          1           0       10.336530   -2.778684    2.377095
     52          1           0       10.656095   -3.608611    0.802560
     53          1           0        9.244425   -4.097832    1.811795
     54          1           0       11.558726   -1.542024    0.883111
     55          1           0        7.130568   -2.735699   -0.709344
     56          1           0        4.494489   -2.739692   -0.621476
     57          1           0        2.575553   -2.203235    0.752755
     58          1           0        1.046953   -3.122696    2.153633
     59          1           0       -0.597975   -3.616158    1.602978
     60          1           0        0.770152   -3.580916    0.425970
     61          1           0        2.596455    3.827203   -0.240069
     62          1           0        2.233132    3.238232   -1.910365
     63          1           0        1.185731    4.492040   -1.146305
     64          1           0        3.422951    1.779974   -0.650408
     65          1           0       -0.954096    2.883285    1.068032
     66          1           0       -3.588192    2.943536    1.026699
     67          1           0       -4.686948   -0.926558   -1.311315
     68          1           0       -5.794558   -1.596702   -3.177361
     69          1           0       -5.597481   -2.913491   -1.953968
     70          1           0       -6.937949   -2.992617   -3.158782
     71          1           0       -8.789443    2.879432    3.051116
     72          1           0       -7.362882    3.329780    2.043049
     73          1           0       -7.182752    2.133062    3.386068
     74          1           0       -5.603277    1.879133    1.825647
     75          1           0       -9.928191   -0.248070    1.938668
     76          1           0      -12.365657   -0.797469    1.066430
     77          1           0      -12.385638   -1.165915   -1.569035
 ---------------------------------------------------------------------

 The electronic state is 1-A.
 Alpha  occ. eigenvalues --  -88.19882 -88.19446 -88.18986 -18.91558 -18.91435
 Alpha  occ. eigenvalues --  -18.91177 -18.91082 -18.90720 -18.90667 -10.07603
 Alpha  occ. eigenvalues --  -10.07564 -10.07228 -10.07172 -10.06996 -10.06926
 Alpha  occ. eigenvalues --  -10.06795 -10.06729 -10.06543 -10.06541 -10.06208
 Alpha  occ. eigenvalues --  -10.06104 -10.03766 -10.03416 -10.03402 -10.02983
 Alpha  occ. eigenvalues --  -10.02957 -10.02806 -10.02543 -10.02482 -10.02038
 Alpha  occ. eigenvalues --  -10.02036 -10.01762 -10.01597 -10.00949 -10.00930
 Alpha  occ. eigenvalues --  -10.00531 -10.00442 -10.00424 -10.00345 -10.00108
 Alpha  occ. eigenvalues --  -10.00030 -10.00025  -9.99887  -9.99677  -9.99348
 Alpha  occ. eigenvalues --   -7.80223  -7.79777  -7.79326  -5.82236  -5.81792
 Alpha  occ. eigenvalues --   -5.81763  -5.81381  -5.81335  -5.81319  -5.80934
 Alpha  occ. eigenvalues --   -5.80856  -5.80502  -1.10052  -1.09824  -1.09676
 Alpha  occ. eigenvalues --   -1.09454  -1.09232  -1.09034  -0.92010  -0.91513
 Alpha  occ. eigenvalues --   -0.90457  -0.89585  -0.88826  -0.88113  -0.83640
 Alpha  occ. eigenvalues --   -0.82316  -0.81262  -0.80330  -0.79988  -0.79565
 Alpha  occ. eigenvalues --   -0.77263  -0.76953  -0.76756  -0.76059  -0.75879
 Alpha  occ. eigenvalues --   -0.75340  -0.75116  -0.74879  -0.74424  -0.73886
 Alpha  occ. eigenvalues --   -0.72918  -0.71306  -0.68250  -0.66404  -0.65390
 Alpha  occ. eigenvalues --   -0.63936  -0.63742  -0.63430  -0.61202  -0.60880
 Alpha  occ. eigenvalues --   -0.60461  -0.60005  -0.59516  -0.58916  -0.58479
 Alpha  occ. eigenvalues --   -0.57283  -0.56771  -0.55580  -0.55275  -0.55035
 Alpha  occ. eigenvalues --   -0.54825  -0.54696  -0.54529  -0.54135  -0.54076
 Alpha  occ. eigenvalues --   -0.53655  -0.52913  -0.52547  -0.52396  -0.52157
 Alpha  occ. eigenvalues --   -0.52046  -0.51986  -0.51599  -0.50759  -0.50040
 Alpha  occ. eigenvalues --   -0.49465  -0.49323  -0.48704  -0.46781  -0.46615
 Alpha  occ. eigenvalues --   -0.46350  -0.46196  -0.45953  -0.45870  -0.45498
 Alpha  occ. eigenvalues --   -0.45056  -0.44704  -0.44379  -0.44158  -0.44116
 Alpha  occ. eigenvalues --   -0.43885  -0.43676  -0.43389  -0.43066  -0.42837
 Alpha  occ. eigenvalues --   -0.42395  -0.42174  -0.41861  -0.41411  -0.40986
 Alpha  occ. eigenvalues --   -0.40475  -0.40085  -0.40041  -0.39768  -0.39641
 Alpha  occ. eigenvalues --   -0.39339  -0.38397  -0.37971  -0.37729  -0.37633
 Alpha  occ. eigenvalues --   -0.37208  -0.37111  -0.36934  -0.36855  -0.36207
 Alpha  occ. eigenvalues --   -0.32380  -0.31670  -0.30616  -0.30246  -0.29907
 Alpha  occ. eigenvalues --   -0.29384  -0.28389  -0.28021  -0.27613  -0.27354
 Alpha  occ. eigenvalues --   -0.25343  -0.23542
 Alpha virt. eigenvalues --   -0.00158   0.01820   0.04244   0.06460   0.06758
 Alpha virt. eigenvalues --    0.06991   0.07402   0.08405   0.09917   0.10836
 Alpha virt. eigenvalues --    0.11370   0.11929   0.12056   0.12335   0.12525

  Beta  occ. eigenvalues --  -88.19882 -88.19446 -88.18986 -18.91558 -18.91435
  Beta  occ. eigenvalues --  -18.91177 -18.91082 -18.90720 -18.90667 -10.07603
  Beta  occ. eigenvalues --  -10.07564 -10.07228 -10.07172 -10.06996 -10.06926
  Beta  occ. eigenvalues --  -10.06795 -10.06729 -10.06543 -10.06541 -10.06208
  Beta  occ. eigenvalues --  -10.06104 -10.03766 -10.03416 -10.03402 -10.02983
  Beta  occ. eigenvalues --  -10.02957 -10.02806 -10.02543 -10.02482 -10.02038
  Beta  occ. eigenvalues --  -10.02036 -10.01762 -10.01597 -10.00949 -10.00930
  Beta  occ. eigenvalues --  -10.00531 -10.00442 -10.00424 -10.00345 -10.00108
  Beta  occ. eigenvalues --  -10.00030 -10.00025  -9.99887  -9.99677  -9.99348
  Beta  occ. eigenvalues --   -7.80223  -7.79777  -7.79326  -5.82236  -5.81792
  Beta  occ. eigenvalues --   -5.81763  -5.81381  -5.81335  -5.81319  -5.80934
  Beta  occ. eigenvalues --   -5.80856  -5.80502  -1.10052  -1.09824  -1.09676
  Beta  occ. eigenvalues --   -1.09454  -1.09232  -1.09034  -0.92010  -0.91513
  Beta  occ. eigenvalues --   -0.90457  -0.89585  -0.88826  -0.88113  -0.83640
  Beta  occ. eigenvalues --   -0.82316  -0.81262  -0.80330  -0.79988  -0.79565
  Beta  occ. eigenvalues --   -0.77263  -0.76953  -0.76756  -0.76059  -0.75879
  Beta  occ. eigenvalues --   -0.75340  -0.75116  -0.74879  -0.74424  -0.73886
  Beta  occ. eigenvalues --   -0.72918  -0.71306  -0.68250  -0.66404  -0.65390
  Beta  occ. eigenvalues --   -0.63936  -0.63742  -0.63430  -0.61202  -0.60880
  Beta  occ. eigenvalues --   -0.60461  -0.60005  -0.59516  -0.58916  -0.58479
  Beta  occ. eigenvalues --   -0.57283  -0.56771  -0.55580  -0.55275  -0.55035
  Beta  occ. eigenvalues --   -0.54825  -0.54696  -0.54529  -0.54135  -0.54076
  Beta  occ. eigenvalues --   -0.53655  -0.52913  -0.52547  -0.52396  -0.52157
  Beta  occ. eigenvalues --   -0.52046  -0.51986  -0.51599  -0.50759  -0.50040
  Beta  occ. eigenvalues --   -0.49465  -0.49323  -0.48704  -0.46781  -0.46615
  Beta  occ. eigenvalues --   -0.46350  -0.46196  -0.45953  -0.45870  -0.45498
  Beta  occ. eigenvalues --   -0.45056  -0.44704  -0.44379  -0.44158  -0.44116
  Beta  occ. eigenvalues --   -0.43885  -0.43676  -0.43389  -0.43066  -0.42837
  Beta  occ. eigenvalues --   -0.42395  -0.42174  -0.41861  -0.41411  -0.40986
  Beta  occ. eigenvalues --   -0.40475  -0.40085  -0.40041  -0.39768  -0.39641
  Beta  occ. eigenvalues --   -0.39339  -0.38397  -0.37971  -0.37729  -0.37633
  Beta  occ. eigenvalues --   -0.37208  -0.37111  -0.36934  -0.36855  -0.36207
  Beta  occ. eigenvalues --   -0.32380  -0.31670  -0.30616  -0.30246  -0.29907
  Beta  occ. eigenvalues --   -0.29384  -0.28389  -0.28021  -0.27613  -0.27354
  Beta  occ. eigenvalues --   -0.25343  -0.23542
  Beta virt. eigenvalues --   -0.00158   0.01820   0.04244   0.06460   0.06758
  Beta virt. eigenvalues --    0.06991   0.07402   0.08405   0.09917   0.10836
  Beta virt. eigenvalues --    0.11370   0.11929   0.12056   0.12335   0.12525

 Mulliken charges and spin densities:
               1          2
     1  C    0.028239  -0.000000
     2  C   -0.027644  -0.000000
     3  C    0.103884   0.000000
     4  O   -0.241094  -0.000000
     5  C    0.064711  -0.000000
     6  C    0.002906  -0.000000
     7  C    0.091833   0.000000
     8  O   -0.240990  -0.000000
     9  C    0.063471   0.000000
    10  C   -0.029227   0.000000
    11  C   -0.118213  -0.000000
    12  C    0.066049  -0.000000
    13  C    0.025240  -0.000000
    14  C   -0.155721  -0.000000
    15  S    0.157113   0.000000
    16  C    0.073625   0.000000
    17  C   -0.043807  -0.000000
    18  C    0.111699   0.000000
    19  O   -0.244946  -0.000000
    20  C    0.068060   0.000000
    21  C    0.022814  -0.000000
    22  C    0.095336   0.000000
    23  O   -0.245237  -0.000000
    24  C    0.066517  -0.000000
    25  C   -0.046141  -0.000000
    26  C   -0.120101   0.000000
    27  C    0.062135   0.000000
    28  C    0.025979  -0.000000
    29  C   -0.154695   0.000000
    30  S    0.150948  -0.000000
    31  C    0.069144  -0.000000
    32  C   -0.044373  -0.000000
    33  C    0.113249   0.000000
    34  O   -0.244582   0.000000
    35  C    0.067351  -0.000000
    36  C    0.025510  -0.000000
    37  C    0.101510  -0.000000
    38  O   -0.243943   0.000000
    39  C    0.067691   0.000000
    40  C   -0.046820   0.000000
    41  C   -0.128897   0.000000
    42  C    0.035262   0.000000
    43  C    0.058105  -0.000000
    44  C   -0.133221   0.000000
    45  S    0.151628  -0.000000
    46  H   -0.018044   0.000000
    47  H   -0.020888   0.000000
    48  H    0.045969  -0.000000
    49  H    0.045172  -0.000000
    50  H    0.050036  -0.000000
    51  H    0.045609  -0.000000
    52  H    0.044591  -0.000000
    53  H    0.050261  -0.000000
    54  H   -0.019752   0.000000
    55  H   -0.028276   0.000000
    56  H   -0.025720  -0.000000
    57  H   -0.029653   0.000000
    58  H    0.047857  -0.000000
    59  H    0.052241  -0.000000
    60  H    0.042900  -0.000000
    61  H    0.045531   0.000000
    62  H    0.047393   0.000000
    63  H    0.048238   0.000000
    64  H   -0.022594   0.000000
    65  H   -0.028686   0.000000
    66  H   -0.027205  -0.000000
    67  H   -0.021875   0.000000
    68  H    0.047361  -0.000000
    69  H    0.045582  -0.000000
    70  H    0.049872  -0.000000
    71  H    0.048043  -0.000000
    72  H    0.043204   0.000000
    73  H    0.046349  -0.000000
    74  H   -0.029206  -0.000000
    75  H   -0.025596  -0.000000
    76  H   -0.021915  -0.000000
    77  H    0.012844  -0.000000
 Sum of Mulliken charges =  -0.00000   0.00000

 Dipole moment (field-independent basis, Debye):
    X=              6.6398    Y=              0.4423    Z=              0.3468  Tot=              6.6635
 Quadrupole moment (field-independent basis, Debye-Ang):
   XX=           -249.8629   YY=           -240.2994   ZZ=           -271.8341
   XY=             -3.5823   XZ=             -5.4240   YZ=             -1.7685

 Normal termination of Gaussian 16 at Fri Jul 24 02:53:36 2020.
