 Gaussian 16, Revision A.03,
 Gaussian 16:  EM64L-G16RevA.03 25-Dec-2016

 ---------------------------------------------------------------
 #P uLC-wPBE/cc-pVDZ iop(3/107=0256300000, 3/108=0256300000) opt
 ---------------------------------------------------------------

 -----------------
 H23 C63 S7 N7 F14
 -----------------
 Symbolic Z-matrix:
 Charge =  0 Multiplicity = 1

 SCF Done:  E(ULC-wPBE) =  -6978.72816399     A.U. after   17 cycles
 SCF Done:  E(ULC-wPBE) =  -6978.82352725     A.U. after   13 cycles
 SCF Done:  E(ULC-wPBE) =  -6978.91173649     A.U. after   14 cycles
 SCF Done:  E(ULC-wPBE) =  -6978.93281172     A.U. after   14 cycles
 SCF Done:  E(ULC-wPBE) =  -6978.94123847     A.U. after   14 cycles
 SCF Done:  E(ULC-wPBE) =  -6978.94457070     A.U. after   14 cycles
 SCF Done:  E(ULC-wPBE) =  -6978.94443840     A.U. after   16 cycles
 SCF Done:  E(ULC-wPBE) =  -6978.94656704     A.U. after   13 cycles
 SCF Done:  E(ULC-wPBE) =  -6978.94775030     A.U. after   13 cycles
 SCF Done:  E(ULC-wPBE) =  -6978.94812160     A.U. after   15 cycles
 SCF Done:  E(ULC-wPBE) =  -6978.94883621     A.U. after   12 cycles
 SCF Done:  E(ULC-wPBE) =  -6978.94884782     A.U. after   11 cycles
 SCF Done:  E(ULC-wPBE) =  -6978.94885107     A.U. after   10 cycles
 SCF Done:  E(ULC-wPBE) =  -6978.94885290     A.U. after    8 cycles
 SCF Done:  E(ULC-wPBE) =  -6978.94885344     A.U. after   10 cycles
 SCF Done:  E(ULC-wPBE) =  -6978.94885389     A.U. after   10 cycles
 SCF Done:  E(ULC-wPBE) =  -6978.94885379     A.U. after    9 cycles
 SCF Done:  E(ULC-wPBE) =  -6978.94885387     A.U. after    6 cycles
 SCF Done:  E(ULC-wPBE) =  -6978.94885393     A.U. after    7 cycles
 SCF Done:  E(ULC-wPBE) =  -6978.94885390     A.U. after    6 cycles
 Optimization completed.
    -- Stationary point found.

                         Standard orientation:
 ---------------------------------------------------------------------
 Center     Atomic      Atomic             Coordinates (Angstroms)
 Number     Number       Type             X           Y           Z
 ---------------------------------------------------------------------
      1          6           0      -22.020226    6.641723    3.917029
      2          6           0      -20.788800    6.627699    3.258597
      3          7           0      -20.354191    5.596340    2.532009
      4          6           0      -21.127496    4.501071    2.418719
      5          6           0      -22.356768    4.427547    3.092142
      6          9           0      -23.090691    3.302680    3.051669
      7          6           0      -22.820245    5.504459    3.836200
      8          6           0      -20.566973    3.409128    1.607490
      9          6           0      -21.140127    2.369379    0.906425
     10          9           0      -22.459212    2.145859    0.828651
     11          6           0      -20.222442    1.537464    0.215614
     12          6           0      -18.923338    1.959664    0.385238
     13         16           0      -18.844493    3.385949    1.369020
     14          6           0      -17.704697    1.352311   -0.173387
     15          6           0      -16.457273    1.457307    0.465813
     16          7           0      -15.335927    0.906642    0.007784
     17          6           0      -15.362524    0.192801   -1.132377
     18          6           0      -16.561641    0.073222   -1.852510
     19          9           0      -16.586787   -0.558645   -3.037478
     20          6           0      -17.733853    0.640793   -1.379218
     21          6           0      -14.075455   -0.369735   -1.562750
     22          6           0      -13.737056   -1.433759   -2.372722
     23          9           0      -14.624063   -2.235618   -2.977005
     24          6           0      -12.343964   -1.661679   -2.509670
     25          6           0      -11.605700   -0.759264   -1.777922
     26         16           0      -12.627669    0.343118   -0.912729
     27          6           0      -10.140308   -0.680380   -1.667717
     28          6           0       -9.342161   -1.831735   -1.788043
     29          7           0       -8.013013   -1.825574   -1.734977
     30          6           0       -7.360690   -0.664877   -1.537738
     31          6           0       -8.087450    0.519845   -1.343676
     32          9           0       -7.455043    1.669330   -1.058028
     33          6           0       -9.471195    0.525468   -1.425972
     34          6           0       -5.895698   -0.755729   -1.485126
     35          6           0       -4.889379    0.158474   -1.718156
     36          9           0       -5.095983    1.427541   -2.094429
     37          6           0       -3.573780   -0.353545   -1.584176
     38          6           0       -3.578664   -1.690139   -1.254399
     39         16           0       -5.194693   -2.303982   -1.115934
     40          6           0       -2.416642   -2.565087   -1.032576
     41          6           0       -1.208562   -2.051084   -0.529323
     42          7           0       -0.123168   -2.786023   -0.302394
     43          6           0       -0.151593   -4.108505   -0.551157
     44          6           0       -1.309923   -4.693826   -1.085444
     45          9           0       -1.325263   -5.994573   -1.418644
     46          6           0       -2.445889   -3.935164   -1.320288
     47          6           0        1.095228   -4.836902   -0.282416
     48          6           0        1.367879   -6.159322   -0.000166
     49          9           0        0.435736   -7.115425    0.109475
     50          6           0        2.736594   -6.451047    0.227012
     51          6           0        3.521724   -5.324364    0.129161
     52         16           0        2.572399   -3.919947   -0.236417
     53          6           0        4.979796   -5.232312    0.304007
     54          6           0        5.604708   -4.063671    0.772517
     55          7           0        6.916136   -3.944900    0.963239
     56          6           0        7.723127   -4.990735    0.707758
     57          6           0        7.181439   -6.182256    0.199941
     58          9           0        7.982321   -7.203711   -0.145317
     59          6           0        5.816268   -6.314319    0.002463
     60          6           0        9.155904   -4.763801    0.938974
     61          6           0       10.210392   -5.612512    1.204658
     62          9           0       10.100062   -6.943476    1.313761
     63          6           0       11.459501   -4.970477    1.398445
     64          6           0       11.352513   -3.602317    1.288711
     65         16           0        9.717333   -3.117816    0.974372
     66          6           0       12.425738   -2.603977    1.422704
     67          6           0       12.388659   -1.374490    0.742776
     68          7           0       13.326861   -0.436465    0.845955
     69          6           0       14.398549   -0.651139    1.630639
     70          6           0       14.538367   -1.877755    2.299608
     71          9           0       15.640986   -2.140859    3.019997
     72          6           0       13.551955   -2.847409    2.218706
     73          6           0       15.386792    0.434104    1.675422
     74          6           0       16.340679    0.798755    2.602749
     75          9           0       16.542527    0.165046    3.766017
     76          6           0       17.087585    1.957103    2.269081
     77          6           0       16.685616    2.493767    1.066727
     78         16           0       15.394495    1.574902    0.361904
     79          6           0       17.220837    3.686903    0.392646
     80          6           0       18.566378    4.063522    0.543138
     81          7           0       19.116283    5.135779   -0.021013
     82          6           0       18.366976    5.930198   -0.805687
     83          6           0       17.015208    5.608718   -1.018462
     84          9           0       16.250719    6.396582   -1.807009
     85          6           0       16.430991    4.503332   -0.427142
     86          6           0       19.022518    7.103613   -1.400732
     87          6           0       20.335953    7.506813   -1.233165
     88          9           0       21.232416    6.868224   -0.475904
     89          6           0       20.696968    8.686557   -1.937372
     90          6           0       19.637516    9.181747   -2.648433
     91         16           0       18.219253    8.230192   -2.466162
     92          1           0      -22.339394    7.517445    4.492308
     93          1           0      -20.112466    7.491590    3.316405
     94          1           0      -23.786442    5.424347    4.346270
     95          1           0      -20.531373    0.660522   -0.359341
     96          1           0      -16.366545    2.011220    1.410998
     97          1           0      -18.646011    0.546282   -1.978058
     98          1           0      -11.929428   -2.450831   -3.142114
     99          1           0       -9.812169   -2.815609   -1.921157
    100          1           0      -10.004737    1.474528   -1.299848
    101          1           0       -2.679538    0.247009   -1.769276
    102          1           0       -1.124965   -0.983951   -0.282496
    103          1           0       -3.326761   -4.421650   -1.754675
    104          1           0        3.096709   -7.449041    0.490333
    105          1           0        5.003455   -3.176864    1.018794
    106          1           0        5.430172   -7.249774   -0.416458
    107          1           0       12.385577   -5.518330    1.591123
    108          1           0       11.553070   -1.143429    0.066848
    109          1           0       13.678534   -3.778225    2.781844
    110          1           0       17.854106    2.381021    2.922726
    111          1           0       19.242607    3.444546    1.149360
    112          1           0       15.367128    4.306217   -0.601771
    113          1           0       21.697640    9.124002   -1.900729
    114          1           0       19.613303   10.072097   -3.281081
 ---------------------------------------------------------------------

 Alpha  occ. eigenvalues --   -0.51205  -0.50947  -0.50940  -0.50900  -0.50831
 Alpha  occ. eigenvalues --   -0.50621  -0.50554  -0.50531  -0.50433  -0.50343
 Alpha  occ. eigenvalues --   -0.50259  -0.50227  -0.50021  -0.49988  -0.49916
 Alpha  occ. eigenvalues --   -0.49771  -0.49689  -0.49450  -0.49305  -0.49045
 Alpha  occ. eigenvalues --   -0.48764  -0.48367  -0.48047  -0.47785  -0.47537
 Alpha  occ. eigenvalues --   -0.47251  -0.47067  -0.46965  -0.46872  -0.46710
 Alpha  occ. eigenvalues --   -0.46545  -0.46394  -0.46299  -0.46101  -0.46036
 Alpha  occ. eigenvalues --   -0.45650  -0.45363  -0.45234  -0.45096  -0.44886
 Alpha  occ. eigenvalues --   -0.44815  -0.44318  -0.44043  -0.43961  -0.43761
 Alpha  occ. eigenvalues --   -0.43655  -0.43626  -0.43376  -0.42396  -0.42193
 Alpha  occ. eigenvalues --   -0.41756  -0.41026  -0.40299  -0.39587  -0.38925
 Alpha  occ. eigenvalues --   -0.38557  -0.37119  -0.37012  -0.36928  -0.36755
 Alpha  occ. eigenvalues --   -0.36634  -0.36400  -0.36172  -0.35933  -0.35827
 Alpha  occ. eigenvalues --   -0.35756  -0.35649  -0.35493  -0.35440  -0.34268
 Alpha  occ. eigenvalues --   -0.34177  -0.34026  -0.33996  -0.33946  -0.33876
 Alpha  occ. eigenvalues --   -0.33732  -0.33378  -0.32955  -0.32237  -0.31242
 Alpha  occ. eigenvalues --   -0.30184  -0.29161  -0.28361  -0.27859
 Alpha virt. eigenvalues --   -0.03846  -0.03145  -0.02275  -0.01190  -0.00045
 Alpha virt. eigenvalues --    0.00978   0.01651   0.02618   0.02740   0.02942
 Alpha virt. eigenvalues --    0.03036   0.03138   0.03484   0.03764   0.04301

  Beta  occ. eigenvalues --  -88.26060 -88.26046 -88.26015 -88.25931 -88.25913
  Beta  occ. eigenvalues --  -88.25659 -88.25268 -24.44848 -24.44729 -24.44713
  Beta  occ. eigenvalues --  -24.44684 -24.44659 -24.44514 -24.44459 -24.44212
  Beta  occ. eigenvalues --  -24.44190 -24.44170 -24.44115 -24.44082 -24.43870
  Beta  occ. eigenvalues --  -24.42837 -14.16439 -14.16395 -14.16382 -14.16311
  Beta  occ. eigenvalues --  -14.16167 -14.16007 -14.15227 -10.14979 -10.14976
  Beta  occ. eigenvalues --  -10.14944 -10.14905 -10.14756 -10.14632 -10.14302
  Beta  occ. eigenvalues --  -10.14249 -10.14231 -10.14203 -10.14133 -10.14097
  Beta  occ. eigenvalues --  -10.13891 -10.13126 -10.11559 -10.11557 -10.11514
  Beta  occ. eigenvalues --  -10.11477 -10.11338 -10.11317 -10.10982 -10.10250
  Beta  occ. eigenvalues --  -10.10240 -10.10218 -10.10139 -10.10131 -10.09839
  Beta  occ. eigenvalues --  -10.09666 -10.09623 -10.09607 -10.09554 -10.09420
  Beta  occ. eigenvalues --  -10.09316 -10.09297 -10.09248 -10.09244 -10.09215
  Beta  occ. eigenvalues --  -10.09209 -10.09180 -10.09169 -10.09158 -10.09139
  Beta  occ. eigenvalues --  -10.09029 -10.08920 -10.08891 -10.08513 -10.08383
  Beta  occ. eigenvalues --  -10.08368 -10.08361 -10.08343 -10.08319 -10.08316
  Beta  occ. eigenvalues --  -10.08202 -10.08103 -10.07843 -10.07382 -10.06777
  Beta  occ. eigenvalues --  -10.06767 -10.06756 -10.06706 -10.06658 -10.06324
  Beta  occ. eigenvalues --  -10.05711  -7.86471  -7.86455  -7.86423  -7.86337
  Beta  occ. eigenvalues --   -7.86318  -7.86072  -7.85695  -5.88416  -5.88401
  Beta  occ. eigenvalues --   -5.88369  -5.88282  -5.88264  -5.88018  -5.87929
  Beta  occ. eigenvalues --   -5.87914  -5.87880  -5.87793  -5.87775  -5.87638
  Beta  occ. eigenvalues --   -5.87530  -5.87487  -5.87471  -5.87440  -5.87355
  Beta  occ. eigenvalues --   -5.87336  -5.87135  -5.87087  -5.86726  -1.29044
  Beta  occ. eigenvalues --   -1.29033  -1.29003  -1.28968  -1.28810  -1.28777
  Beta  occ. eigenvalues --   -1.28757  -1.28199  -1.28180  -1.28155  -1.28099
  Beta  occ. eigenvalues --   -1.28032  -1.27866  -1.27027  -1.04249  -1.04187
  Beta  occ. eigenvalues --   -1.04152  -1.04093  -1.03953  -1.03698  -1.03243
  Beta  occ. eigenvalues --   -0.98805  -0.98641  -0.98451  -0.98260  -0.98126
  Beta  occ. eigenvalues --   -0.97966  -0.97041  -0.92135  -0.91860  -0.91512
  Beta  occ. eigenvalues --   -0.91180  -0.90903  -0.90638  -0.89898  -0.88441
  Beta  occ. eigenvalues --   -0.88248  -0.88054  -0.87807  -0.87507  -0.87114
  Beta  occ. eigenvalues --   -0.86952  -0.84767  -0.84209  -0.83763  -0.83581
  Beta  occ. eigenvalues --   -0.83522  -0.83141  -0.82934  -0.82748  -0.82453
  Beta  occ. eigenvalues --   -0.82058  -0.81566  -0.80731  -0.79742  -0.79094
  Beta  occ. eigenvalues --   -0.76768  -0.75897  -0.75238  -0.74661  -0.74434
  Beta  occ. eigenvalues --   -0.73978  -0.73772  -0.73500  -0.73393  -0.73058
  Beta  occ. eigenvalues --   -0.72882  -0.72698  -0.72637  -0.72410  -0.67977
  Beta  occ. eigenvalues --   -0.67658  -0.67500  -0.67400  -0.67339  -0.67211
  Beta  occ. eigenvalues --   -0.67133  -0.67023  -0.66792  -0.66757  -0.66642
  Beta  occ. eigenvalues --   -0.66513  -0.66245  -0.65472  -0.65436  -0.65257
  Beta  occ. eigenvalues --   -0.64829  -0.64445  -0.63993  -0.63770  -0.62913
  Beta  occ. eigenvalues --   -0.62250  -0.61633  -0.61586  -0.61486  -0.61411
  Beta  occ. eigenvalues --   -0.61370  -0.61004  -0.60757  -0.60696  -0.60652
  Beta  occ. eigenvalues --   -0.60526  -0.60372  -0.60329  -0.60149  -0.58199
  Beta  occ. eigenvalues --   -0.57793  -0.57606  -0.57327  -0.57149  -0.57056
  Beta  occ. eigenvalues --   -0.56936  -0.56861  -0.56798  -0.56662  -0.56623
  Beta  occ. eigenvalues --   -0.56598  -0.56492  -0.56361  -0.55458  -0.55406
  Beta  occ. eigenvalues --   -0.55323  -0.55243  -0.55225  -0.55036  -0.54741
  Beta  occ. eigenvalues --   -0.54708  -0.54422  -0.54311  -0.54216  -0.54038
  Beta  occ. eigenvalues --   -0.53848  -0.53739  -0.53168  -0.53137  -0.52971
  Beta  occ. eigenvalues --   -0.52487  -0.52464  -0.52281  -0.52171  -0.52049
  Beta  occ. eigenvalues --   -0.51205  -0.50947  -0.50940  -0.50900  -0.50831
  Beta  occ. eigenvalues --   -0.50621  -0.50554  -0.50531  -0.50433  -0.50343
  Beta  occ. eigenvalues --   -0.50259  -0.50227  -0.50021  -0.49988  -0.49916
  Beta  occ. eigenvalues --   -0.49771  -0.49689  -0.49450  -0.49305  -0.49045
  Beta  occ. eigenvalues --   -0.48764  -0.48367  -0.48047  -0.47785  -0.47537
  Beta  occ. eigenvalues --   -0.47251  -0.47067  -0.46965  -0.46872  -0.46710
  Beta  occ. eigenvalues --   -0.46545  -0.46394  -0.46299  -0.46101  -0.46036
  Beta  occ. eigenvalues --   -0.45650  -0.45363  -0.45234  -0.45096  -0.44886
  Beta  occ. eigenvalues --   -0.44815  -0.44318  -0.44043  -0.43961  -0.43761
  Beta  occ. eigenvalues --   -0.43655  -0.43626  -0.43376  -0.42396  -0.42193
  Beta  occ. eigenvalues --   -0.41756  -0.41026  -0.40299  -0.39587  -0.38925
  Beta  occ. eigenvalues --   -0.38557  -0.37119  -0.37012  -0.36928  -0.36755
  Beta  occ. eigenvalues --   -0.36634  -0.36400  -0.36172  -0.35933  -0.35827
  Beta  occ. eigenvalues --   -0.35756  -0.35649  -0.35493  -0.35440  -0.34268
  Beta  occ. eigenvalues --   -0.34177  -0.34026  -0.33996  -0.33946  -0.33876
  Beta  occ. eigenvalues --   -0.33732  -0.33378  -0.32955  -0.32237  -0.31242
  Beta  occ. eigenvalues --   -0.30184  -0.29161  -0.28361  -0.27859
  Beta virt. eigenvalues --   -0.03846  -0.03145  -0.02275  -0.01190  -0.00045
  Beta virt. eigenvalues --    0.00978   0.01651   0.02618   0.02740   0.02942
  Beta virt. eigenvalues --    0.03036   0.03138   0.03484   0.03764   0.04301

 Mulliken charges and spin densities:
               1          2
     1  C   -0.026175  -0.000000
     2  C    0.088337   0.000000
     3  N   -0.202046  -0.000000
     4  C    0.082083   0.000000
     5  C    0.098397  -0.000000
     6  F   -0.110780  -0.000000
     7  C    0.062939  -0.000000
     8  C   -0.163576  -0.000000
     9  C    0.107763   0.000000
    10  F   -0.107709  -0.000000
    11  C    0.033196   0.000000
    12  C   -0.160674  -0.000000
    13  S    0.219264  -0.000000
    14  C   -0.001752   0.000000
    15  C    0.091556  -0.000000
    16  N   -0.201306  -0.000000
    17  C    0.091298  -0.000000
    18  C    0.107624   0.000000
    19  F   -0.108201  -0.000000
    20  C    0.064503  -0.000000
    21  C   -0.167027  -0.000000
    22  C    0.102409   0.000000
    23  F   -0.106548  -0.000000
    24  C    0.036370  -0.000000
    25  C   -0.158200  -0.000000
    26  S    0.217620   0.000000
    27  C   -0.008005   0.000000
    28  C    0.093156  -0.000000
    29  N   -0.200817   0.000000
    30  C    0.088459  -0.000000
    31  C    0.107312  -0.000000
    32  F   -0.107017   0.000000
    33  C    0.067279   0.000000
    34  C   -0.166524   0.000000
    35  C    0.104482  -0.000000
    36  F   -0.106287   0.000000
    37  C    0.035567  -0.000000
    38  C   -0.158397   0.000000
    39  S    0.217808  -0.000000
    40  C   -0.006887  -0.000000
    41  C    0.093427   0.000000
    42  N   -0.200599   0.000000
    43  C    0.088741  -0.000000
    44  C    0.106547   0.000000
    45  F   -0.107472   0.000000
    46  C    0.066548   0.000000
    47  C   -0.166480   0.000000
    48  C    0.104859  -0.000000
    49  F   -0.106549   0.000000
    50  C    0.034900  -0.000000
    51  C   -0.160350   0.000000
    52  S    0.220593  -0.000000
    53  C   -0.002901   0.000000
    54  C    0.091203   0.000000
    55  N   -0.200207   0.000000
    56  C    0.090094   0.000000
    57  C    0.108223  -0.000000
    58  F   -0.108205  -0.000000
    59  C    0.064222  -0.000000
    60  C   -0.168429  -0.000000
    61  C    0.103988   0.000000
    62  F   -0.107139   0.000000
    63  C    0.034720  -0.000000
    64  C   -0.159908   0.000000
    65  S    0.223045  -0.000000
    66  C   -0.004909   0.000000
    67  C    0.090960  -0.000000
    68  N   -0.200343   0.000000
    69  C    0.089841  -0.000000
    70  C    0.108496   0.000000
    71  F   -0.108117  -0.000000
    72  C    0.065965  -0.000000
    73  C   -0.167640   0.000000
    74  C    0.103555   0.000000
    75  F   -0.107227  -0.000000
    76  C    0.035544  -0.000000
    77  C   -0.155815   0.000000
    78  S    0.215343  -0.000000
    79  C   -0.006183  -0.000000
    80  C    0.082743   0.000000
    81  N   -0.185010   0.000000
    82  C    0.088945   0.000000
    83  C    0.109160  -0.000000
    84  F   -0.121758   0.000000
    85  C    0.067006   0.000000
    86  C   -0.197926  -0.000000
    87  C    0.132338   0.000000
    88  F   -0.098463  -0.000000
    89  C    0.056555  -0.000000
    90  C   -0.122129  -0.000000
    91  S    0.179175  -0.000000
    92  H    0.005690   0.000000
    93  H    0.014607   0.000000
    94  H    0.017157  -0.000000
    95  H    0.002869  -0.000000
    96  H    0.017841  -0.000000
    97  H    0.007608  -0.000000
    98  H    0.005633  -0.000000
    99  H    0.010788   0.000000
   100  H    0.015876   0.000000
   101  H    0.005978  -0.000000
   102  H    0.010698   0.000000
   103  H    0.016007   0.000000
   104  H    0.003837  -0.000000
   105  H    0.018831   0.000000
   106  H    0.007683   0.000000
   107  H    0.003108  -0.000000
   108  H    0.017351   0.000000
   109  H    0.006803  -0.000000
   110  H    0.005747   0.000000
   111  H    0.008609   0.000000
   112  H    0.013969   0.000000
   113  H    0.005378   0.000000
   114  H    0.035463   0.000000
 Sum of Mulliken charges =  -0.00000  -0.00000

 Dipole moment (field-independent basis, Debye):
    X=             -6.4932    Y=              1.7262    Z=              0.0860  Tot=              6.7193
 Quadrupole moment (field-independent basis, Debye-Ang):
   XX=           -475.0830   YY=           -503.4560   ZZ=           -539.2406
   XY=            -41.9527   XZ=            -42.9030   YZ=              6.3682

 Normal termination of Gaussian 16 at Fri Jul 24 20:58:38 2020.
