 Gaussian 16, Revision A.03,
 Gaussian 16:  EM64L-G16RevA.03 25-Dec-2016

 ---------------------------------------------------------------
 #P uLC-wPBE/cc-pVDZ iop(3/107=0083500000, 3/108=0083500000) opt
 ---------------------------------------------------------------

 -------------
 H26 C30 S6 O6
 -------------
 Symbolic Z-matrix:
 Charge =  0 Multiplicity = 1

 SCF Done:  E(ULC-wPBE) =  -3996.71388724     A.U. after   18 cycles
 SCF Done:  E(ULC-wPBE) =  -3996.77877602     A.U. after   15 cycles
 SCF Done:  E(ULC-wPBE) =  -3996.82458411     A.U. after   17 cycles
 SCF Done:  E(ULC-wPBE) =  -3996.82770123     A.U. after   15 cycles
 SCF Done:  E(ULC-wPBE) =  -3996.83195221     A.U. after   16 cycles
 SCF Done:  E(ULC-wPBE) =  -3996.83584162     A.U. after   17 cycles
 SCF Done:  E(ULC-wPBE) =  -3996.84029627     A.U. after   13 cycles
 SCF Done:  E(ULC-wPBE) =  -3996.84515479     A.U. after   17 cycles
 SCF Done:  E(ULC-wPBE) =  -3996.84660138     A.U. after   14 cycles
 SCF Done:  E(ULC-wPBE) =  -3996.84699026     A.U. after   13 cycles
 SCF Done:  E(ULC-wPBE) =  -3996.84714137     A.U. after   12 cycles
 SCF Done:  E(ULC-wPBE) =  -3996.84714182     A.U. after   11 cycles
 SCF Done:  E(ULC-wPBE) =  -3996.84714141     A.U. after   12 cycles
 SCF Done:  E(ULC-wPBE) =  -3996.84714251     A.U. after   12 cycles
 SCF Done:  E(ULC-wPBE) =  -3996.84714252     A.U. after    7 cycles
 SCF Done:  E(ULC-wPBE) =  -3996.84714297     A.U. after   10 cycles
 SCF Done:  E(ULC-wPBE) =  -3996.84714321     A.U. after   10 cycles
 SCF Done:  E(ULC-wPBE) =  -3996.84714329     A.U. after    7 cycles
 SCF Done:  E(ULC-wPBE) =  -3996.84714335     A.U. after    7 cycles
 SCF Done:  E(ULC-wPBE) =  -3996.84714337     A.U. after    6 cycles
 Optimization completed.
    -- Stationary point found.

                         Standard orientation:
 ---------------------------------------------------------------------
 Center     Atomic      Atomic             Coordinates (Angstroms)
 Number     Number       Type             X           Y           Z
 ---------------------------------------------------------------------
      1          6           0       11.086145    0.091013    0.050347
      2          6           0       10.594744   -1.197168    0.115868
      3          6           0        9.167323   -1.225976    0.096429
      4          8           0        8.363486   -2.333329    0.147973
      5          6           0        9.016684   -3.596378    0.230846
      6          6           0        8.569237    0.040743    0.015630
      7         16           0        9.825062    1.278210   -0.035717
      8          6           0        7.163995    0.356350   -0.023284
      9          6           0        6.564649    1.623726   -0.099617
     10          8           0        7.371155    2.727755   -0.144866
     11          6           0        6.721495    3.994010   -0.221496
     12          6           0        5.145345    1.600716   -0.129292
     13          6           0        4.623463    0.309541   -0.073591
     14         16           0        5.910883   -0.883120    0.025171
     15          6           0        3.242010   -0.105852   -0.084053
     16          6           0        2.719658   -1.391569   -0.216727
     17          6           0        1.301391   -1.417008   -0.185338
     18          8           0        0.495074   -2.516302   -0.296248
     19          6           0        1.144964   -3.774638   -0.455866
     20          6           0        0.700489   -0.155452   -0.030539
     21         16           0        1.955441    1.079306    0.090320
     22          6           0       -0.700498    0.155414    0.030299
     23          6           0       -1.301392    1.416978    0.185046
     24          8           0       -0.495065    2.516279    0.295845
     25          6           0       -1.144945    3.774601    0.455624
     26          6           0       -2.719655    1.391546    0.216491
     27          6           0       -3.242014    0.105823    0.083905
     28         16           0       -1.955460   -1.079350   -0.090456
     29          6           0       -4.623470   -0.309566    0.073513
     30          6           0       -5.145360   -1.600733    0.129354
     31          6           0       -6.564666   -1.623735    0.099690
     32          8           0       -7.371177   -2.727764    0.144854
     33          6           0       -6.721549   -3.993935    0.223107
     34          6           0       -7.164002   -0.356358    0.023275
     35         16           0       -5.910883    0.883092   -0.025352
     36          6           0       -8.569244   -0.040728   -0.015563
     37          6           0       -9.167299    1.226006   -0.096377
     38          8           0       -8.363433    2.333333   -0.148016
     39          6           0       -9.016583    3.596357   -0.231627
     40          6           0      -10.594722    1.197237   -0.115693
     41          6           0      -11.086153   -0.090928   -0.050063
     42         16           0       -9.825095   -1.278153    0.035962
     43          1           0       12.132941    0.411702    0.048591
     44          1           0       11.234757   -2.084587    0.176035
     45          1           0        8.213388   -4.354278    0.262845
     46          1           0        9.634221   -3.677725    1.152625
     47          1           0        9.661429   -3.782500   -0.656492
     48          1           0        6.071698    4.172958    0.663325
     49          1           0        7.527349    4.749434   -0.242084
     50          1           0        6.109949    4.083418   -1.146294
     51          1           0        4.511512    2.491646   -0.206225
     52          1           0        3.353596   -2.275848   -0.349279
     53          1           0        0.339487   -4.527800   -0.522469
     54          1           0        1.753579   -3.803884   -1.386380
     55          1           0        1.797615   -4.009320    0.413676
     56          1           0       -1.797687    4.009344   -0.413834
     57          1           0       -0.339464    4.527760    0.522203
     58          1           0       -1.753465    3.803774    1.386204
     59          1           0       -3.353588    2.275834    0.349002
     60          1           0       -4.511524   -2.491653    0.206362
     61          1           0       -6.071413   -4.173848   -0.661273
     62          1           0       -7.527412   -4.749337    0.244173
     63          1           0       -6.110353   -4.082336    1.148231
     64          1           0       -9.634015    3.677236   -1.153516
     65          1           0       -9.661418    3.782969    0.655543
     66          1           0       -8.213261    4.354217   -0.263926
     67          1           0      -11.234717    2.084672   -0.175820
     68          1           0      -12.132955   -0.411601   -0.048201
 ---------------------------------------------------------------------

 The electronic state is 1-A.
 Alpha  occ. eigenvalues --  -88.13902 -88.13902 -88.13750 -88.13750 -88.13747
 Alpha  occ. eigenvalues --  -88.13747 -18.85102 -18.85102 -18.85047 -18.85047
 Alpha  occ. eigenvalues --  -18.84984 -18.84984 -10.00342 -10.00342 -10.00284
 Alpha  occ. eigenvalues --  -10.00283 -10.00183 -10.00183  -9.99938  -9.99937
 Alpha  occ. eigenvalues --   -9.99854  -9.99854  -9.99787  -9.99787  -9.97674
 Alpha  occ. eigenvalues --   -9.97674  -9.97635  -9.97635  -9.97338  -9.97320
 Alpha  occ. eigenvalues --   -9.97257  -9.97257  -9.97204  -9.97204  -9.96515
 Alpha  occ. eigenvalues --   -9.96515  -9.94838  -9.94838  -9.94616  -9.94616
 Alpha  occ. eigenvalues --   -9.94575  -9.94575  -7.74073  -7.74073  -7.73935
 Alpha  occ. eigenvalues --   -7.73935  -7.73932  -7.73932  -5.76192  -5.76192
 Alpha  occ. eigenvalues --   -5.76074  -5.76073  -5.76068  -5.76068  -5.75734
 Alpha  occ. eigenvalues --   -5.75734  -5.75622  -5.75622  -5.75617  -5.75617
 Alpha  occ. eigenvalues --   -5.75310  -5.75310  -5.75122  -5.75122  -5.75121
 Alpha  occ. eigenvalues --   -5.75121  -1.02765  -1.02699  -1.02672  -1.02672
 Alpha  occ. eigenvalues --   -1.02600  -1.02600  -0.85816  -0.85421  -0.84680
 Alpha  occ. eigenvalues --   -0.84105  -0.83211  -0.82515  -0.76151  -0.74837
 Alpha  occ. eigenvalues --   -0.73283  -0.72878  -0.72576  -0.72423  -0.71667
 Alpha  occ. eigenvalues --   -0.71409  -0.71143  -0.69505  -0.69246  -0.69206
 Alpha  occ. eigenvalues --   -0.67332  -0.67213  -0.66765  -0.66338  -0.64748
 Alpha  occ. eigenvalues --   -0.62823  -0.59976  -0.58803  -0.57412  -0.56960
 Alpha  occ. eigenvalues --   -0.55911  -0.55115  -0.54165  -0.53926  -0.53753
 Alpha  occ. eigenvalues --   -0.53733  -0.52323  -0.52238  -0.52067  -0.52016
 Alpha  occ. eigenvalues --   -0.50701  -0.48681  -0.47843  -0.46682  -0.46317
 Alpha  occ. eigenvalues --   -0.46263  -0.46253  -0.46096  -0.46047  -0.46030
 Alpha  occ. eigenvalues --   -0.45995  -0.45988  -0.45942  -0.44964  -0.43989
 Alpha  occ. eigenvalues --   -0.43680  -0.43351  -0.43297  -0.42772  -0.42581
 Alpha  occ. eigenvalues --   -0.41695  -0.41408  -0.40759  -0.40673  -0.40482
 Alpha  occ. eigenvalues --   -0.40272  -0.39794  -0.39702  -0.39521  -0.38595
 Alpha  occ. eigenvalues --   -0.38494  -0.37754  -0.37624  -0.36889  -0.36781
 Alpha  occ. eigenvalues --   -0.36560  -0.35812  -0.35413  -0.35266  -0.35008
 Alpha  occ. eigenvalues --   -0.34750  -0.33901  -0.33888  -0.33066  -0.32842
 Alpha  occ. eigenvalues --   -0.32533  -0.32514  -0.32498  -0.32430  -0.31873
 Alpha  occ. eigenvalues --   -0.31824  -0.31553  -0.31477  -0.29586  -0.28342
 Alpha  occ. eigenvalues --   -0.26766  -0.24982  -0.24888  -0.24756  -0.24141
 Alpha  occ. eigenvalues --   -0.23993  -0.23907  -0.21452  -0.19347  -0.16928
 Alpha virt. eigenvalues --   -0.04455  -0.02028   0.00629   0.01928   0.03997
 Alpha virt. eigenvalues --    0.04174   0.04314   0.04801   0.05051   0.05335
 Alpha virt. eigenvalues --    0.05441   0.06215   0.07229   0.08064   0.08376

  Beta  occ. eigenvalues --  -88.13902 -88.13902 -88.13750 -88.13750 -88.13747
  Beta  occ. eigenvalues --  -88.13747 -18.85102 -18.85102 -18.85047 -18.85047
  Beta  occ. eigenvalues --  -18.84984 -18.84984 -10.00342 -10.00342 -10.00284
  Beta  occ. eigenvalues --  -10.00283 -10.00183 -10.00183  -9.99938  -9.99937
  Beta  occ. eigenvalues --   -9.99854  -9.99854  -9.99787  -9.99787  -9.97674
  Beta  occ. eigenvalues --   -9.97674  -9.97635  -9.97635  -9.97338  -9.97320
  Beta  occ. eigenvalues --   -9.97257  -9.97257  -9.97204  -9.97204  -9.96515
  Beta  occ. eigenvalues --   -9.96515  -9.94838  -9.94838  -9.94616  -9.94616
  Beta  occ. eigenvalues --   -9.94575  -9.94575  -7.74073  -7.74073  -7.73935
  Beta  occ. eigenvalues --   -7.73935  -7.73932  -7.73932  -5.76192  -5.76192
  Beta  occ. eigenvalues --   -5.76074  -5.76073  -5.76068  -5.76068  -5.75734
  Beta  occ. eigenvalues --   -5.75734  -5.75622  -5.75622  -5.75617  -5.75617
  Beta  occ. eigenvalues --   -5.75310  -5.75310  -5.75122  -5.75122  -5.75121
  Beta  occ. eigenvalues --   -5.75121  -1.02765  -1.02699  -1.02672  -1.02672
  Beta  occ. eigenvalues --   -1.02600  -1.02600  -0.85816  -0.85421  -0.84680
  Beta  occ. eigenvalues --   -0.84105  -0.83211  -0.82515  -0.76151  -0.74837
  Beta  occ. eigenvalues --   -0.73283  -0.72878  -0.72576  -0.72423  -0.71667
  Beta  occ. eigenvalues --   -0.71409  -0.71143  -0.69505  -0.69246  -0.69206
  Beta  occ. eigenvalues --   -0.67332  -0.67213  -0.66765  -0.66338  -0.64748
  Beta  occ. eigenvalues --   -0.62823  -0.59976  -0.58803  -0.57412  -0.56960
  Beta  occ. eigenvalues --   -0.55911  -0.55115  -0.54165  -0.53926  -0.53753
  Beta  occ. eigenvalues --   -0.53733  -0.52323  -0.52238  -0.52067  -0.52016
  Beta  occ. eigenvalues --   -0.50701  -0.48681  -0.47843  -0.46682  -0.46317
  Beta  occ. eigenvalues --   -0.46263  -0.46253  -0.46096  -0.46047  -0.46030
  Beta  occ. eigenvalues --   -0.45995  -0.45988  -0.45942  -0.44964  -0.43989
  Beta  occ. eigenvalues --   -0.43680  -0.43351  -0.43297  -0.42772  -0.42581
  Beta  occ. eigenvalues --   -0.41695  -0.41408  -0.40759  -0.40673  -0.40482
  Beta  occ. eigenvalues --   -0.40272  -0.39794  -0.39702  -0.39521  -0.38595
  Beta  occ. eigenvalues --   -0.38494  -0.37754  -0.37624  -0.36889  -0.36781
  Beta  occ. eigenvalues --   -0.36560  -0.35812  -0.35413  -0.35266  -0.35008
  Beta  occ. eigenvalues --   -0.34750  -0.33901  -0.33888  -0.33066  -0.32842
  Beta  occ. eigenvalues --   -0.32533  -0.32514  -0.32498  -0.32430  -0.31873
  Beta  occ. eigenvalues --   -0.31824  -0.31553  -0.31477  -0.29586  -0.28342
  Beta  occ. eigenvalues --   -0.26766  -0.24982  -0.24888  -0.24756  -0.24141
  Beta  occ. eigenvalues --   -0.23993  -0.23907  -0.21452  -0.19347  -0.16928
  Beta virt. eigenvalues --   -0.04455  -0.02028   0.00629   0.01928   0.03997
  Beta virt. eigenvalues --    0.04174   0.04314   0.04801   0.05051   0.05335
  Beta virt. eigenvalues --    0.05441   0.06215   0.07229   0.08064   0.08376

 Mulliken charges and spin densities:
               1          2
     1  C   -0.128904   0.000000
     2  C    0.040943  -0.000000
     3  C    0.119931  -0.000000
     4  O   -0.244985   0.000000
     5  C    0.065979  -0.000000
     6  C   -0.140030   0.000000
     7  S    0.151829  -0.000000
     8  C   -0.104098  -0.000000
     9  C    0.140638   0.000000
    10  O   -0.248403   0.000000
    11  C    0.066592   0.000000
    12  C    0.007290  -0.000000
    13  C   -0.102324  -0.000000
    14  S    0.130111   0.000000
    15  C   -0.099394   0.000000
    16  C    0.009711  -0.000000
    17  C    0.136765   0.000000
    18  O   -0.247326  -0.000000
    19  C    0.067528  -0.000000
    20  C   -0.117312  -0.000000
    21  S    0.130423  -0.000000
    22  C   -0.117312  -0.000000
    23  C    0.136767  -0.000000
    24  O   -0.247327   0.000000
    25  C    0.067529  -0.000000
    26  C    0.009713   0.000000
    27  C   -0.099397  -0.000000
    28  S    0.130424   0.000000
    29  C   -0.102326   0.000000
    30  C    0.007288  -0.000000
    31  C    0.140637  -0.000000
    32  O   -0.248401  -0.000000
    33  C    0.066591   0.000000
    34  C   -0.104099   0.000000
    35  S    0.130113  -0.000000
    36  C   -0.140029  -0.000000
    37  C    0.119931   0.000000
    38  O   -0.244984  -0.000000
    39  C    0.065979  -0.000000
    40  C    0.040945  -0.000000
    41  C   -0.128905  -0.000000
    42  S    0.151829   0.000000
    43  H    0.013170   0.000000
    44  H   -0.019811   0.000000
    45  H    0.048174   0.000000
    46  H    0.042819  -0.000000
    47  H    0.042484   0.000000
    48  H    0.043949   0.000000
    49  H    0.048923  -0.000000
    50  H    0.044583  -0.000000
    51  H   -0.018128   0.000000
    52  H   -0.018249  -0.000000
    53  H    0.047861   0.000000
    54  H    0.045104  -0.000000
    55  H    0.044155  -0.000000
    56  H    0.044156  -0.000000
    57  H    0.047860   0.000000
    58  H    0.045103  -0.000000
    59  H   -0.018249  -0.000000
    60  H   -0.018129  -0.000000
    61  H    0.043949   0.000000
    62  H    0.048923  -0.000000
    63  H    0.044584  -0.000000
    64  H    0.042819   0.000000
    65  H    0.042484   0.000000
    66  H    0.048174   0.000000
    67  H   -0.019811  -0.000000
    68  H    0.013170   0.000000
 Sum of Mulliken charges =  -0.00000   0.00000

 Dipole moment (field-independent basis, Debye):
    X=             -0.0000    Y=              0.0001    Z=              0.0012  Tot=              0.0012
 Quadrupole moment (field-independent basis, Debye-Ang):
   XX=           -242.4147   YY=           -219.7698   ZZ=           -295.3320
   XY=            -22.8765   XZ=              0.1248   YZ=             -0.0041

 Normal termination of Gaussian 16 at Sun Jul 26 00:27:06 2020.
