 Gaussian 16, Revision A.03,
 Gaussian 16:  EM64L-G16RevA.03 25-Dec-2016

 ---------------------------------------------------------------
 #P uLC-wPBE/cc-pVDZ iop(3/107=0299900000, 3/108=0299900000) opt
 ---------------------------------------------------------------

 ----------------
 H23 C33 S3 O3 F3
 ----------------
 Symbolic Z-matrix:
 Charge =  0 Multiplicity = 1

 SCF Done:  E(ULC-wPBE) =  -2989.33160182     A.U. after   18 cycles
 SCF Done:  E(ULC-wPBE) =  -2989.39779195     A.U. after   14 cycles
 SCF Done:  E(ULC-wPBE) =  -2989.44623829     A.U. after   16 cycles
 SCF Done:  E(ULC-wPBE) =  -2989.44936288     A.U. after   13 cycles
 SCF Done:  E(ULC-wPBE) =  -2989.45001937     A.U. after   13 cycles
 SCF Done:  E(ULC-wPBE) =  -2989.45053791     A.U. after   13 cycles
 SCF Done:  E(ULC-wPBE) =  -2989.45118070     A.U. after   13 cycles
 SCF Done:  E(ULC-wPBE) =  -2989.45174768     A.U. after   14 cycles
 SCF Done:  E(ULC-wPBE) =  -2989.45191461     A.U. after   13 cycles
 SCF Done:  E(ULC-wPBE) =  -2989.45201896     A.U. after   12 cycles
 SCF Done:  E(ULC-wPBE) =  -2989.45207551     A.U. after   12 cycles
 SCF Done:  E(ULC-wPBE) =  -2989.45210171     A.U. after   12 cycles
 SCF Done:  E(ULC-wPBE) =  -2989.45211725     A.U. after   12 cycles
 SCF Done:  E(ULC-wPBE) =  -2989.45212154     A.U. after   11 cycles
 SCF Done:  E(ULC-wPBE) =  -2989.45212367     A.U. after   11 cycles
 SCF Done:  E(ULC-wPBE) =  -2989.45212447     A.U. after    8 cycles
 SCF Done:  E(ULC-wPBE) =  -2989.45212471     A.U. after    7 cycles
 SCF Done:  E(ULC-wPBE) =  -2989.45212482     A.U. after    6 cycles
 SCF Done:  E(ULC-wPBE) =  -2989.45212479     A.U. after    6 cycles
 SCF Done:  E(ULC-wPBE) =  -2989.45212480     A.U. after    6 cycles
 Optimization completed.
    -- Stationary point found.

                         Standard orientation:
 ---------------------------------------------------------------------
 Center     Atomic      Atomic             Coordinates (Angstroms)
 Number     Number       Type             X           Y           Z
 ---------------------------------------------------------------------
      1          6           0      -11.272454    0.582312    0.051085
      2          6           0      -10.338736    1.566963   -0.239414
      3          6           0       -9.009471    1.187567   -0.375105
      4          9           0       -8.110506    2.155528   -0.651764
      5          6           0       -8.552228   -0.125378   -0.238549
      6          6           0       -9.535629   -1.103236    0.057639
      7          8           0       -9.085567   -2.376659    0.188796
      8          6           0      -10.011317   -3.378603    0.565841
      9          6           0      -10.880013   -0.747412    0.201308
     10          6           0       -7.125477   -0.475267   -0.393092
     11          6           0       -6.580775   -1.612796   -0.943014
     12          6           0       -5.162045   -1.638070   -0.896250
     13          6           0       -4.620487   -0.523873   -0.301307
     14         16           0       -5.867069    0.566137    0.196823
     15          6           0       -3.196670   -0.207234   -0.089102
     16          6           0       -2.272407   -1.235070    0.099971
     17          6           0       -0.937016   -0.910198    0.282819
     18          9           0       -0.074121   -1.932623    0.457898
     19          6           0       -0.436558    0.394088    0.304749
     20          6           0       -1.396909    1.420437    0.116957
     21          8           0       -0.919951    2.690713    0.130844
     22          6           0       -1.823543    3.749922   -0.126794
     23          6           0       -2.745435    1.120389   -0.080640
     24          6           0        0.995879    0.683202    0.509629
     25          6           0        1.566266    1.757394    1.154810
     26          6           0        2.985408    1.737742    1.134803
     27          6           0        3.502623    0.653728    0.466305
     28         16           0        2.232833   -0.353569   -0.133758
     29          6           0        4.919313    0.303717    0.255412
     30          6           0        5.334133   -1.026089    0.183978
     31          6           0        6.680557   -1.298878   -0.009558
     32          9           0        7.043976   -2.596559   -0.064434
     33          6           0        7.672672   -0.324537   -0.133876
     34          6           0        7.225537    1.018556   -0.056837
     35          8           0        8.184766    1.970788   -0.185756
     36          6           0        7.807629    3.326294   -0.040132
     37          6           0        5.876121    1.321576    0.129207
     38          6           0        9.094393   -0.670748   -0.333753
     39          6           0       10.030817   -0.014674   -1.099137
     40          6           0       11.323841   -0.606619   -1.038208
     41          6           0       11.358810   -1.699833   -0.216474
     42         16           0        9.822264   -2.028702    0.471669
     43          1           0      -12.328246    0.847963    0.164219
     44          1           0      -10.608325    2.618306   -0.365577
     45          1           0      -10.799704   -3.515778   -0.197715
     46          1           0       -9.429726   -4.307614    0.653985
     47          1           0      -10.481776   -3.151520    1.540453
     48          1           0      -11.631326   -1.505290    0.430876
     49          1           0       -7.191161   -2.408626   -1.370476
     50          1           0       -4.555019   -2.443881   -1.316366
     51          1           0       -2.568633   -2.285897    0.133860
     52          1           0       -2.615872    3.808021    0.642485
     53          1           0       -1.223090    4.670558   -0.097041
     54          1           0       -2.289811    3.652940   -1.124608
     55          1           0       -3.465210    1.922904   -0.253537
     56          1           0        0.973675    2.537481    1.632723
     57          1           0        3.609076    2.487026    1.628926
     58          1           0        4.637750   -1.861502    0.293368
     59          1           0        7.354123    3.518511    0.950054
     60          1           0        8.736236    3.908283   -0.130634
     61          1           0        7.102996    3.643308   -0.831684
     62          1           0        5.543350    2.360469    0.152643
     63          1           0        9.791325    0.873613   -1.684442
     64          1           0       12.193405   -0.233282   -1.584734
     65          1           0       12.208411   -2.345917    0.011489
 ---------------------------------------------------------------------

 The electronic state is 1-A.
 Alpha  occ. eigenvalues --  -88.26406 -88.25980 -88.25337 -24.45540 -24.45187
 Alpha  occ. eigenvalues --  -24.44665 -18.97638 -18.97327 -18.96945 -10.15783
 Alpha  occ. eigenvalues --  -10.15470 -10.14996 -10.14584 -10.14284 -10.13850
 Alpha  occ. eigenvalues --  -10.13144 -10.12753 -10.12546 -10.10488 -10.10140
 Alpha  occ. eigenvalues --  -10.10099 -10.09887 -10.09738 -10.09475 -10.09429
 Alpha  occ. eigenvalues --  -10.09397 -10.09024 -10.08757 -10.08535 -10.08257
 Alpha  occ. eigenvalues --  -10.07657 -10.07448 -10.07243 -10.07065 -10.06991
 Alpha  occ. eigenvalues --  -10.06878 -10.06872 -10.06690 -10.06644 -10.06505
 Alpha  occ. eigenvalues --  -10.06014 -10.05845  -7.86959  -7.86531  -7.85898
 Alpha  occ. eigenvalues --   -5.88794  -5.88366  -5.88286  -5.87897  -5.87855
 Alpha  occ. eigenvalues --   -5.87726  -5.87469  -5.87214  -5.86853  -1.29777
 Alpha  occ. eigenvalues --   -1.29444  -1.28938  -1.16881  -1.16552  -1.16189
 Alpha  occ. eigenvalues --   -0.99585  -0.99119  -0.97909  -0.97194  -0.96391
 Alpha  occ. eigenvalues --   -0.95674  -0.90562  -0.89130  -0.87948  -0.85925
 Alpha  occ. eigenvalues --   -0.85811  -0.85381  -0.83825  -0.83467  -0.83347
 Alpha  occ. eigenvalues --   -0.82565  -0.81975  -0.81327  -0.81053  -0.80016
 Alpha  occ. eigenvalues --   -0.78577  -0.74708  -0.72754  -0.71818  -0.71015
 Alpha  occ. eigenvalues --   -0.70765  -0.70382  -0.66964  -0.66622  -0.66079
 Alpha  occ. eigenvalues --   -0.65828  -0.65098  -0.64592  -0.64053  -0.62799
 Alpha  occ. eigenvalues --   -0.62282  -0.61027  -0.60769  -0.60579  -0.60446
 Alpha  occ. eigenvalues --   -0.59986  -0.59416  -0.58894  -0.58740  -0.58243
 Alpha  occ. eigenvalues --   -0.58135  -0.57782  -0.57519  -0.57221  -0.56217
 Alpha  occ. eigenvalues --   -0.55992  -0.55784  -0.55455  -0.54559  -0.54216
 Alpha  occ. eigenvalues --   -0.53537  -0.52866  -0.51459  -0.50669  -0.50260
 Alpha  occ. eigenvalues --   -0.49894  -0.49667  -0.49453  -0.49243  -0.49092
 Alpha  occ. eigenvalues --   -0.48946  -0.48791  -0.48596  -0.48202  -0.47889
 Alpha  occ. eigenvalues --   -0.47620  -0.47283  -0.46971  -0.46642  -0.46422
 Alpha  occ. eigenvalues --   -0.45969  -0.45780  -0.45545  -0.45167  -0.43148
 Alpha  occ. eigenvalues --   -0.42941  -0.42654  -0.42591  -0.42477  -0.42225
 Alpha  occ. eigenvalues --   -0.41891  -0.41806  -0.41626  -0.38034  -0.36754
 Alpha  occ. eigenvalues --   -0.35238  -0.33974  -0.33608  -0.32906  -0.32637
 Alpha  occ. eigenvalues --   -0.32361  -0.31958  -0.31132  -0.29086  -0.27077
 Alpha virt. eigenvalues --    0.00108   0.02369   0.04969   0.07193   0.07328
 Alpha virt. eigenvalues --    0.07419   0.07873   0.09510   0.11103   0.12346
 Alpha virt. eigenvalues --    0.12861   0.13600   0.13612   0.14022   0.14385

  Beta  occ. eigenvalues --  -88.26406 -88.25980 -88.25337 -24.45540 -24.45187
  Beta  occ. eigenvalues --  -24.44665 -18.97638 -18.97327 -18.96945 -10.15783
  Beta  occ. eigenvalues --  -10.15470 -10.14996 -10.14584 -10.14284 -10.13850
  Beta  occ. eigenvalues --  -10.13144 -10.12753 -10.12546 -10.10488 -10.10140
  Beta  occ. eigenvalues --  -10.10099 -10.09887 -10.09738 -10.09475 -10.09429
  Beta  occ. eigenvalues --  -10.09397 -10.09024 -10.08757 -10.08535 -10.08257
  Beta  occ. eigenvalues --  -10.07657 -10.07448 -10.07243 -10.07065 -10.06991
  Beta  occ. eigenvalues --  -10.06878 -10.06872 -10.06690 -10.06644 -10.06505
  Beta  occ. eigenvalues --  -10.06014 -10.05845  -7.86959  -7.86531  -7.85898
  Beta  occ. eigenvalues --   -5.88794  -5.88366  -5.88286  -5.87897  -5.87855
  Beta  occ. eigenvalues --   -5.87726  -5.87469  -5.87214  -5.86853  -1.29777
  Beta  occ. eigenvalues --   -1.29444  -1.28938  -1.16881  -1.16552  -1.16189
  Beta  occ. eigenvalues --   -0.99585  -0.99119  -0.97909  -0.97194  -0.96391
  Beta  occ. eigenvalues --   -0.95674  -0.90562  -0.89130  -0.87948  -0.85925
  Beta  occ. eigenvalues --   -0.85811  -0.85381  -0.83825  -0.83467  -0.83347
  Beta  occ. eigenvalues --   -0.82565  -0.81975  -0.81327  -0.81053  -0.80016
  Beta  occ. eigenvalues --   -0.78577  -0.74708  -0.72754  -0.71818  -0.71015
  Beta  occ. eigenvalues --   -0.70765  -0.70382  -0.66964  -0.66622  -0.66079
  Beta  occ. eigenvalues --   -0.65828  -0.65098  -0.64592  -0.64053  -0.62799
  Beta  occ. eigenvalues --   -0.62282  -0.61027  -0.60769  -0.60579  -0.60446
  Beta  occ. eigenvalues --   -0.59986  -0.59416  -0.58894  -0.58740  -0.58243
  Beta  occ. eigenvalues --   -0.58135  -0.57782  -0.57519  -0.57221  -0.56217
  Beta  occ. eigenvalues --   -0.55992  -0.55784  -0.55455  -0.54559  -0.54216
  Beta  occ. eigenvalues --   -0.53537  -0.52866  -0.51459  -0.50669  -0.50260
  Beta  occ. eigenvalues --   -0.49894  -0.49667  -0.49453  -0.49243  -0.49092
  Beta  occ. eigenvalues --   -0.48946  -0.48791  -0.48596  -0.48202  -0.47889
  Beta  occ. eigenvalues --   -0.47620  -0.47283  -0.46971  -0.46642  -0.46422
  Beta  occ. eigenvalues --   -0.45969  -0.45780  -0.45545  -0.45167  -0.43148
  Beta  occ. eigenvalues --   -0.42941  -0.42654  -0.42591  -0.42477  -0.42225
  Beta  occ. eigenvalues --   -0.41891  -0.41806  -0.41626  -0.38034  -0.36754
  Beta  occ. eigenvalues --   -0.35238  -0.33974  -0.33608  -0.32906  -0.32637
  Beta  occ. eigenvalues --   -0.32361  -0.31958  -0.31132  -0.29086  -0.27077
  Beta virt. eigenvalues --    0.00108   0.02369   0.04969   0.07193   0.07328
  Beta virt. eigenvalues --    0.07419   0.07873   0.09510   0.11103   0.12346
  Beta virt. eigenvalues --    0.12861   0.13600   0.13612   0.14022   0.14385

 Mulliken charges and spin densities:
               1          2
     1  C    0.031664   0.000000
     2  C    0.006339   0.000000
     3  C    0.100430   0.000000
     4  F   -0.124584   0.000000
     5  C   -0.030405  -0.000000
     6  C    0.103018  -0.000000
     7  O   -0.242545  -0.000000
     8  C    0.054229   0.000000
     9  C   -0.040383  -0.000000
    10  C   -0.131138  -0.000000
    11  C    0.060565   0.000000
    12  C    0.024919   0.000000
    13  C   -0.158906  -0.000000
    14  S    0.171864  -0.000000
    15  C    0.073831   0.000000
    16  C   -0.010834  -0.000000
    17  C    0.108026   0.000000
    18  F   -0.122217   0.000000
    19  C   -0.016216  -0.000000
    20  C    0.107604   0.000000
    21  O   -0.246210  -0.000000
    22  C    0.056090   0.000000
    23  C   -0.047086  -0.000000
    24  C   -0.134796   0.000000
    25  C    0.055069  -0.000000
    26  C    0.023308  -0.000000
    27  C   -0.156964   0.000000
    28  S    0.181118   0.000000
    29  C    0.062567   0.000000
    30  C   -0.007885  -0.000000
    31  C    0.109878   0.000000
    32  F   -0.121477   0.000000
    33  C   -0.018349  -0.000000
    34  C    0.113663   0.000000
    35  O   -0.243219  -0.000000
    36  C    0.057849   0.000000
    37  C   -0.045713  -0.000000
    38  C   -0.139137  -0.000000
    39  C    0.029189   0.000000
    40  C    0.050147  -0.000000
    41  C   -0.138126  -0.000000
    42  S    0.167721  -0.000000
    43  H    0.001284   0.000000
    44  H    0.003969  -0.000000
    45  H    0.049599   0.000000
    46  H    0.059256  -0.000000
    47  H    0.050860  -0.000000
    48  H   -0.002241   0.000000
    49  H   -0.012022  -0.000000
    50  H   -0.007132   0.000000
    51  H   -0.005014  -0.000000
    52  H    0.052212  -0.000000
    53  H    0.055963  -0.000000
    54  H    0.054163  -0.000000
    55  H   -0.001472   0.000000
    56  H   -0.013036  -0.000000
    57  H   -0.012614   0.000000
    58  H    0.003557  -0.000000
    59  H    0.048072  -0.000000
    60  H    0.056653  -0.000000
    61  H    0.050658   0.000000
    62  H   -0.012707  -0.000000
    63  H   -0.011646   0.000000
    64  H   -0.007894  -0.000000
    65  H    0.026636   0.000000
 Sum of Mulliken charges =  -0.00000   0.00000

 Dipole moment (field-independent basis, Debye):
    X=             -5.8883    Y=              2.9384    Z=              0.1877  Tot=              6.5834
 Quadrupole moment (field-independent basis, Debye-Ang):
   XX=           -194.5400   YY=           -226.1274   ZZ=           -264.0867
   XY=             39.4456   XZ=             -6.4700   YZ=              0.0761

 Normal termination of Gaussian 16 at Thu Jul 23 22:58:33 2020.
