 Gaussian 16, Revision A.03,
 Gaussian 16:  EM64L-G16RevA.03 25-Dec-2016

 ---------------------------------------------------------------
 #P uLC-wPBE/cc-pVDZ iop(3/107=0052500000, 3/108=0052500000) opt
 ---------------------------------------------------------------

 -------
 H10 C12
 -------
 Symbolic Z-matrix:
 Charge =  0 Multiplicity = 1

 SCF Done:  E(ULC-wPBE) =  -462.768492517     A.U. after   14 cycles
 SCF Done:  E(ULC-wPBE) =  -462.795398972     A.U. after   13 cycles
 SCF Done:  E(ULC-wPBE) =  -462.800289172     A.U. after   13 cycles
 SCF Done:  E(ULC-wPBE) =  -462.800607153     A.U. after   11 cycles
 SCF Done:  E(ULC-wPBE) =  -462.800701386     A.U. after   11 cycles
 SCF Done:  E(ULC-wPBE) =  -462.800727080     A.U. after   11 cycles
 SCF Done:  E(ULC-wPBE) =  -462.800729854     A.U. after    8 cycles
 SCF Done:  E(ULC-wPBE) =  -462.800730192     A.U. after    7 cycles
 Optimization completed.
    -- Stationary point found.

                         Standard orientation:
 ---------------------------------------------------------------------
 Center     Atomic      Atomic             Coordinates (Angstroms)
 Number     Number       Type             X           Y           Z
 ---------------------------------------------------------------------
      1          6           0        3.580061    0.000005    0.000033
      2          6           0        2.872241    1.148525   -0.387275
      3          6           0        1.470753    1.148316   -0.387223
      4          6           0        0.743320    0.000071    0.000017
      5          6           0        1.470738   -1.148330    0.387270
      6          6           0        2.872119   -1.148588    0.387243
      7          6           0       -0.743345    0.000045   -0.000002
      8          6           0       -1.470715   -1.148338   -0.387258
      9          6           0       -2.872143   -1.148569   -0.387277
     10          6           0       -3.580037   -0.000020    0.000006
     11          6           0       -2.872229    1.148546    0.387254
     12          6           0       -1.470761    1.148342    0.387205
     13          1           0        4.679687   -0.000144    0.000069
     14          1           0        3.416113    2.051471   -0.701607
     15          1           0        0.926486    2.044656   -0.719399
     16          1           0        0.926229   -2.044516    0.719432
     17          1           0        3.416155   -2.051479    0.701450
     18          1           0       -0.926297   -2.044525   -0.719378
     19          1           0       -3.416152   -2.051469   -0.701525
     20          1           0       -4.679685   -0.000104   -0.000010
     21          1           0       -3.416118    2.051445    0.701642
     22          1           0       -0.926421    2.044628    0.719375
 ---------------------------------------------------------------------

 The electronic state is 1-A.
 Alpha  occ. eigenvalues --   -9.94284  -9.94273  -9.93437  -9.93436  -9.93432
 Alpha  occ. eigenvalues --   -9.93432  -9.93364  -9.93364  -9.93342  -9.93342
 Alpha  occ. eigenvalues --   -9.93342  -9.93341  -0.81747  -0.79640  -0.73248
 Alpha  occ. eigenvalues --   -0.70644  -0.69927  -0.67880  -0.59052  -0.58451
 Alpha  occ. eigenvalues --   -0.55813  -0.54607  -0.50380  -0.47205  -0.44608
 Alpha  occ. eigenvalues --   -0.44085  -0.41766  -0.41494  -0.40301  -0.39979
 Alpha  occ. eigenvalues --   -0.39572  -0.36489  -0.34845  -0.34791  -0.33480
 Alpha  occ. eigenvalues --   -0.32254  -0.31876  -0.27768  -0.25688  -0.25605
 Alpha  occ. eigenvalues --   -0.23278
 Alpha virt. eigenvalues --   -0.03315  -0.01241  -0.00795   0.01875   0.06699
 Alpha virt. eigenvalues --    0.07207   0.09307   0.11034   0.11105   0.12410
 Alpha virt. eigenvalues --    0.13085   0.13629   0.14766   0.15054   0.16706

  Beta  occ. eigenvalues --   -9.94284  -9.94273  -9.93437  -9.93436  -9.93432
  Beta  occ. eigenvalues --   -9.93432  -9.93364  -9.93364  -9.93342  -9.93342
  Beta  occ. eigenvalues --   -9.93342  -9.93341  -0.81747  -0.79640  -0.73248
  Beta  occ. eigenvalues --   -0.70644  -0.69927  -0.67880  -0.59052  -0.58451
  Beta  occ. eigenvalues --   -0.55813  -0.54607  -0.50380  -0.47205  -0.44608
  Beta  occ. eigenvalues --   -0.44085  -0.41766  -0.41494  -0.40301  -0.39979
  Beta  occ. eigenvalues --   -0.39572  -0.36489  -0.34845  -0.34791  -0.33480
  Beta  occ. eigenvalues --   -0.32254  -0.31876  -0.27768  -0.25688  -0.25605
  Beta  occ. eigenvalues --   -0.23278
  Beta virt. eigenvalues --   -0.03315  -0.01241  -0.00795   0.01875   0.06699
  Beta virt. eigenvalues --    0.07207   0.09307   0.11034   0.11105   0.12410
  Beta virt. eigenvalues --    0.13085   0.13629   0.14766   0.15054   0.16706

 Mulliken charges and spin densities:
               1          2
     1  C    0.025753   0.000000
     2  C    0.032724  -0.000000
     3  C    0.002394   0.000000
     4  C    0.027971  -0.000000
     5  C    0.002461   0.000000
     6  C    0.032709  -0.000000
     7  C    0.027965   0.000000
     8  C    0.002487  -0.000000
     9  C    0.032698   0.000000
    10  C    0.025750  -0.000000
    11  C    0.032731   0.000000
    12  C    0.002417  -0.000000
    13  H   -0.022520  -0.000000
    14  H   -0.020995  -0.000000
    15  H   -0.029758  -0.000000
    16  H   -0.029754  -0.000000
    17  H   -0.020995  -0.000000
    18  H   -0.029774   0.000000
    19  H   -0.020993   0.000000
    20  H   -0.022514  -0.000000
    21  H   -0.020999  -0.000000
    22  H   -0.029759  -0.000000
 Sum of Mulliken charges =  -0.00000  -0.00000

 Dipole moment (field-independent basis, Debye):
    X=             -0.0000    Y=              0.0000    Z=              0.0000  Tot=              0.0001
 Quadrupole moment (field-independent basis, Debye-Ang):
   XX=            -61.8856   YY=            -63.6322   ZZ=            -74.3872
   XY=              0.0000   XZ=             -0.0005   YZ=              0.0002

 Normal termination of Gaussian 16 at Thu Jul 23 15:45:55 2020.
