 Gaussian 16, Revision A.03,
 Gaussian 16:  EM64L-G16RevA.03 25-Dec-2016

 ---------------------------------------------------------------
 #P uLC-wPBE/cc-pVDZ iop(3/107=0393600000, 3/108=0393600000) opt
 ---------------------------------------------------------------

 -----------------
 H47 C60 S5 O10 F5
 -----------------
 Symbolic Z-matrix:
 Charge =  0 Multiplicity = 1

 SCF Done:  E(ULC-wPBE) =  -5553.86558105     A.U. after   18 cycles
 SCF Done:  E(ULC-wPBE) =  -5553.96727030     A.U. after   14 cycles
 SCF Done:  E(ULC-wPBE) =  -5554.07264410     A.U. after   15 cycles
 SCF Done:  E(ULC-wPBE) =  -5554.10369709     A.U. after   14 cycles
 SCF Done:  E(ULC-wPBE) =  -5554.11650832     A.U. after   14 cycles
 SCF Done:  E(ULC-wPBE) =  -5554.12667171     A.U. after   14 cycles
 SCF Done:  E(ULC-wPBE) =  -5554.13349995     A.U. after   15 cycles
 SCF Done:  E(ULC-wPBE) =  -5554.13735259     A.U. after   13 cycles
 SCF Done:  E(ULC-wPBE) =  -5554.13916377     A.U. after   13 cycles
 SCF Done:  E(ULC-wPBE) =  -5554.14026825     A.U. after   12 cycles
 SCF Done:  E(ULC-wPBE) =  -5554.14266053     A.U. after   12 cycles
 SCF Done:  E(ULC-wPBE) =  -5554.14281486     A.U. after   12 cycles
 SCF Done:  E(ULC-wPBE) =  -5554.14280977     A.U. after   11 cycles
 SCF Done:  E(ULC-wPBE) =  -5554.14283873     A.U. after   10 cycles
 SCF Done:  E(ULC-wPBE) =  -5554.14284008     A.U. after    7 cycles
 SCF Done:  E(ULC-wPBE) =  -5554.14284063     A.U. after    7 cycles
 SCF Done:  E(ULC-wPBE) =  -5554.14284077     A.U. after    7 cycles
 SCF Done:  E(ULC-wPBE) =  -5554.14284082     A.U. after    6 cycles
 SCF Done:  E(ULC-wPBE) =  -5554.14284092     A.U. after    5 cycles
 SCF Done:  E(ULC-wPBE) =  -5554.14284091     A.U. after    5 cycles
 Optimization completed.
    -- Stationary point found.

                         Standard orientation:
 ---------------------------------------------------------------------
 Center     Atomic      Atomic             Coordinates (Angstroms)
 Number     Number       Type             X           Y           Z
 ---------------------------------------------------------------------
      1          6           0       19.310384    0.613846    0.318750
      2          6           0       18.864602   -0.263087   -0.657744
      3          6           0       17.512597   -0.607622   -0.693762
      4          8           0       16.976786   -1.437058   -1.614124
      5          6           0       17.834797   -2.037752   -2.554207
      6          6           0       16.615308   -0.084758    0.250011
      7          6           0       17.099158    0.803702    1.220856
      8          8           0       16.176482    1.272749    2.091435
      9          6           0       16.598162    2.160088    3.099707
     10          6           0       18.447909    1.156958    1.259024
     11          6           0       15.196563   -0.477902    0.213992
     12          6           0       14.680715   -1.738190    0.235895
     13          9           0       15.436732   -2.834015    0.357184
     14          6           0       13.270082   -1.819806    0.133204
     15          6           0       12.702034   -0.582132    0.029998
     16         16           0       13.902628    0.654642    0.054424
     17          6           0       11.270112   -0.252336   -0.081358
     18          6           0       10.769399    0.917645    0.484165
     19          6           0        9.412053    1.214673    0.375788
     20          8           0        8.848829    2.315580    0.914866
     21          6           0        9.683805    3.254757    1.549901
     22          6           0        8.536948    0.351526   -0.300133
     23          6           0        9.061689   -0.824556   -0.854605
     24          8           0        8.168873   -1.615117   -1.491485
     25          6           0        8.629312   -2.806803   -2.083671
     26          6           0       10.417273   -1.125986   -0.753361
     27          6           0        7.110362    0.689858   -0.424064
     28          6           0        6.565534    1.840139   -0.909943
     29          9           0        7.297146    2.836495   -1.418354
     30          6           0        5.151852    1.913229   -0.856587
     31          6           0        4.610889    0.782863   -0.313579
     32         16           0        5.839787   -0.343091    0.125982
     33          6           0        3.185182    0.476157   -0.101893
     34          6           0        2.721446   -0.832638   -0.208292
     35          6           0        1.369587   -1.107642   -0.010158
     36          8           0        0.841244   -2.344183   -0.117719
     37          6           0        1.708511   -3.426239   -0.361672
     38          6           0        0.463336   -0.082824    0.300088
     39          6           0        0.951218    1.228353    0.393905
     40          8           0        0.029651    2.170954    0.693715
     41          6           0        0.452169    3.508569    0.816410
     42          6           0        2.301010    1.510053    0.200509
     43          6           0       -0.956837   -0.392682    0.528272
     44          6           0       -1.482424   -1.304248    1.393672
     45          9           0       -0.736063   -2.029011    2.232816
     46          6           0       -2.892978   -1.430466    1.361279
     47          6           0       -3.451418   -0.587854    0.442924
     48         16           0       -2.242284    0.336639   -0.366035
     49          6           0       -4.880473   -0.417420    0.126206
     50          6           0       -5.735126   -1.514872    0.211595
     51          6           0       -7.088208   -1.358995   -0.077537
     52          8           0       -7.982354   -2.371583   -0.022773
     53          6           0       -7.526021   -3.651403    0.346531
     54          6           0       -7.608685   -0.115869   -0.464467
     55          6           0       -6.731729    0.976434   -0.539599
     56          8           0       -7.290916    2.153726   -0.887301
     57          6           0       -6.453622    3.274755   -1.044357
     58          6           0       -5.376726    0.828560   -0.248672
     59          6           0       -9.032621    0.052050   -0.795005
     60          6           0       -9.568326    0.576921   -1.932342
     61          9           0       -8.828280    0.971931   -2.972981
     62          6           0      -10.981929    0.667543   -1.953217
     63          6           0      -11.532349    0.196444   -0.795613
     64         16           0      -10.312243   -0.341884    0.296644
     65          6           0      -12.961164    0.111605   -0.443959
     66          6           0      -13.840908    1.082342   -0.917099
     67          6           0      -15.196084    1.001357   -0.602382
     68          8           0      -16.113529    1.889968   -1.037720
     69          6           0      -15.676097    2.987939   -1.801925
     70          6           0      -15.688295   -0.033969    0.206353
     71          6           0      -14.784576   -0.998149    0.672640
     72          8           0      -15.320065   -1.976513    1.435845
     73          6           0      -14.466334   -2.972596    1.947843
     74          6           0      -13.431288   -0.932963    0.348907
     75          6           0      -17.117585   -0.087357    0.555530
     76          6           0      -17.867840    0.890686    1.135779
     77          9           0      -17.360990    2.065245    1.524742
     78          6           0      -19.241829    0.578992    1.310006
     79          6           0      -19.517835   -0.667675    0.842060
     80         16           0      -18.130249   -1.443675    0.209066
     81          1           0       20.367389    0.885471    0.347195
     82          1           0       19.566741   -0.667424   -1.383974
     83          1           0       18.603103   -2.657044   -2.064041
     84          1           0       18.325705   -1.288004   -3.195723
     85          1           0       17.201058   -2.679761   -3.176246
     86          1           0       15.703178    2.403745    3.683253
     87          1           0       17.016180    3.087956    2.676786
     88          1           0       17.344469    1.694803    3.763609
     89          1           0       18.829225    1.842578    2.012935
     90          1           0       12.718482   -2.757087    0.174263
     91          1           0       11.441100    1.575280    1.032525
     92          1           0        9.029364    4.072730    1.871087
     93          1           0       10.444978    3.651538    0.859345
     94          1           0       10.182034    2.824848    2.433840
     95          1           0        9.067446   -3.488873   -1.337224
     96          1           0        9.370949   -2.606978   -2.873600
     97          1           0        7.749360   -3.282318   -2.531192
     98          1           0       10.828804   -2.018181   -1.219795
     99          1           0        4.579503    2.754610   -1.242499
    100          1           0        3.417478   -1.625464   -0.475372
    101          1           0        2.212379   -3.332530   -1.337243
    102          1           0        1.078666   -4.322772   -0.369438
    103          1           0        2.466158   -3.524389    0.432074
    104          1           0       -0.446097    4.089354    1.054106
    105          1           0        1.184574    3.629509    1.630600
    106          1           0        0.887135    3.885377   -0.123367
    107          1           0        2.683845    2.521671    0.314558
    108          1           0       -3.451718   -2.090889    2.021635
    109          1           0       -5.326599   -2.488722    0.471711
    110          1           0       -7.096453   -3.652794    1.361359
    111          1           0       -8.406357   -4.303642    0.328842
    112          1           0       -6.778597   -4.036674   -0.365436
    113          1           0       -7.104870    4.096256   -1.363004
    114          1           0       -5.962302    3.552066   -0.097719
    115          1           0       -5.686756    3.102006   -1.816223
    116          1           0       -4.703821    1.683255   -0.281394
    117          1           0      -11.547549    1.031409   -2.808846
    118          1           0      -13.453422    1.906894   -1.511209
    119          1           0      -15.212160    2.666734   -2.748639
    120          1           0      -14.963840    3.614047   -1.241047
    121          1           0      -16.572254    3.577559   -2.025124
    122          1           0      -13.985203   -3.549481    1.141605
    123          1           0      -15.102441   -3.642355    2.537293
    124          1           0      -13.689847   -2.543971    2.601551
    125          1           0      -12.737582   -1.698125    0.691859
    126          1           0      -19.962316    1.256295    1.764329
    127          1           0      -20.476408   -1.182134    0.848566
 ---------------------------------------------------------------------

 Alpha  occ. eigenvalues --   -0.63728  -0.63541  -0.63243  -0.63071  -0.62959
 Alpha  occ. eigenvalues --   -0.61975  -0.61932  -0.61851  -0.61639  -0.61633
 Alpha  occ. eigenvalues --   -0.60804  -0.60752  -0.60741  -0.60665  -0.60439
 Alpha  occ. eigenvalues --   -0.60064  -0.60014  -0.59966  -0.59881  -0.59717
 Alpha  occ. eigenvalues --   -0.59652  -0.59479  -0.59196  -0.58908  -0.58672
 Alpha  occ. eigenvalues --   -0.58382  -0.58363  -0.58309  -0.58216  -0.57826
 Alpha  occ. eigenvalues --   -0.57153  -0.57049  -0.56922  -0.56817  -0.56744
 Alpha  occ. eigenvalues --   -0.56513  -0.56228  -0.56001  -0.55863  -0.55806
 Alpha  occ. eigenvalues --   -0.55644  -0.55063  -0.54755  -0.54349  -0.53823
 Alpha  occ. eigenvalues --   -0.53447  -0.53012  -0.52908  -0.52801  -0.52754
 Alpha  occ. eigenvalues --   -0.52468  -0.52432  -0.52396  -0.52209  -0.52145
 Alpha  occ. eigenvalues --   -0.51680  -0.50851  -0.50719  -0.50698  -0.50596
 Alpha  occ. eigenvalues --   -0.50533  -0.50163  -0.50086  -0.49777  -0.49346
 Alpha  occ. eigenvalues --   -0.49325  -0.49042  -0.48894  -0.48737  -0.48615
 Alpha  occ. eigenvalues --   -0.48279  -0.47827  -0.47777  -0.47701  -0.47560
 Alpha  occ. eigenvalues --   -0.47145  -0.46505  -0.46488  -0.46443  -0.46353
 Alpha  occ. eigenvalues --   -0.46043  -0.45703  -0.45594  -0.45500  -0.45408
 Alpha  occ. eigenvalues --   -0.45250  -0.44969  -0.44869  -0.44798  -0.44651
 Alpha  occ. eigenvalues --   -0.44575  -0.44329  -0.44107  -0.43920  -0.43818
 Alpha  occ. eigenvalues --   -0.43606  -0.42782  -0.42675  -0.42647  -0.42588
 Alpha  occ. eigenvalues --   -0.42440  -0.37175  -0.36759  -0.36180  -0.35438
 Alpha  occ. eigenvalues --   -0.34743  -0.34214  -0.34143  -0.34028  -0.33798
 Alpha  occ. eigenvalues --   -0.33580  -0.32506  -0.32308  -0.32251  -0.32175
 Alpha  occ. eigenvalues --   -0.32168  -0.31960  -0.31260  -0.29965  -0.28830
 Alpha  occ. eigenvalues --   -0.28054
 Alpha virt. eigenvalues --    0.01533   0.02460   0.03719   0.05062   0.07069
 Alpha virt. eigenvalues --    0.08036   0.09379   0.09463   0.09621   0.09822
 Alpha virt. eigenvalues --    0.09877   0.09944   0.10807   0.11561   0.12076

  Beta  occ. eigenvalues --  -88.31203 -88.31178 -88.31112 -88.30980 -88.30676
  Beta  occ. eigenvalues --  -24.48856 -24.48831 -24.48769 -24.48650 -24.48317
  Beta  occ. eigenvalues --  -19.01374 -19.01321 -19.01319 -19.01238 -19.01050
  Beta  occ. eigenvalues --  -19.01036 -19.00994 -19.00943 -19.00901 -19.00714
  Beta  occ. eigenvalues --  -10.19043 -10.19039 -10.18976 -10.18854 -10.18743
  Beta  occ. eigenvalues --  -10.18690 -10.18669 -10.18629 -10.18616 -10.18603
  Beta  occ. eigenvalues --  -10.18570 -10.18526 -10.18478 -10.18350 -10.18309
  Beta  occ. eigenvalues --  -10.17390 -10.17364 -10.17309 -10.17241 -10.17119
  Beta  occ. eigenvalues --  -10.17031 -10.16974 -10.16916 -10.16883 -10.16763
  Beta  occ. eigenvalues --  -10.15416 -10.15392 -10.15325 -10.15187 -10.14539
  Beta  occ. eigenvalues --  -10.14490 -10.14419 -10.14417 -10.14407 -10.14354
  Beta  occ. eigenvalues --  -10.14228 -10.14206 -10.14119 -10.13868 -10.12939
  Beta  occ. eigenvalues --  -10.12734 -10.12709 -10.12683 -10.12594 -10.12340
  Beta  occ. eigenvalues --  -10.12017 -10.11982 -10.11913 -10.11767 -10.11555
  Beta  occ. eigenvalues --  -10.11433 -10.11385 -10.11379 -10.11363 -10.11331
  Beta  occ. eigenvalues --  -10.11314 -10.11304 -10.11250 -10.11092 -10.11056
  Beta  occ. eigenvalues --   -7.91927  -7.91901  -7.91835  -7.91704  -7.91415
  Beta  occ. eigenvalues --   -5.93485  -5.93459  -5.93393  -5.93262  -5.92966
  Beta  occ. eigenvalues --   -5.92960  -5.92934  -5.92868  -5.92737  -5.92511
  Beta  occ. eigenvalues --   -5.92484  -5.92437  -5.92418  -5.92287  -5.92013
  Beta  occ. eigenvalues --   -1.33462  -1.33446  -1.33383  -1.33262  -1.32913
  Beta  occ. eigenvalues --   -1.21235  -1.21181  -1.21180  -1.21099  -1.20886
  Beta  occ. eigenvalues --   -1.20856  -1.20837  -1.20832  -1.20742  -1.20537
  Beta  occ. eigenvalues --   -1.04775  -1.04645  -1.04517  -1.04373  -1.03470
  Beta  occ. eigenvalues --   -1.01498  -1.01152  -1.00722  -1.00317  -1.00078
  Beta  occ. eigenvalues --   -0.95420  -0.94703  -0.93779  -0.92802  -0.92126
  Beta  occ. eigenvalues --   -0.90454  -0.90397  -0.90311  -0.90307  -0.90089
  Beta  occ. eigenvalues --   -0.88565  -0.87963  -0.87830  -0.87714  -0.87433
  Beta  occ. eigenvalues --   -0.86987  -0.86688  -0.86229  -0.85710  -0.85364
  Beta  occ. eigenvalues --   -0.85096  -0.84980  -0.84896  -0.84810  -0.84665
  Beta  occ. eigenvalues --   -0.83410  -0.83146  -0.82677  -0.81913  -0.81022
  Beta  occ. eigenvalues --   -0.78433  -0.77259  -0.76097  -0.75207  -0.74821
  Beta  occ. eigenvalues --   -0.72452  -0.72445  -0.72314  -0.72211  -0.72059
  Beta  occ. eigenvalues --   -0.70438  -0.70201  -0.70009  -0.69897  -0.69770
  Beta  occ. eigenvalues --   -0.69400  -0.69300  -0.69241  -0.69154  -0.68838
  Beta  occ. eigenvalues --   -0.67896  -0.67620  -0.67147  -0.66415  -0.65668
  Beta  occ. eigenvalues --   -0.65144  -0.64521  -0.64334  -0.64137  -0.63900
  Beta  occ. eigenvalues --   -0.63728  -0.63541  -0.63243  -0.63071  -0.62959
  Beta  occ. eigenvalues --   -0.61975  -0.61932  -0.61851  -0.61639  -0.61633
  Beta  occ. eigenvalues --   -0.60804  -0.60752  -0.60741  -0.60665  -0.60439
  Beta  occ. eigenvalues --   -0.60064  -0.60014  -0.59966  -0.59881  -0.59717
  Beta  occ. eigenvalues --   -0.59652  -0.59479  -0.59196  -0.58908  -0.58672
  Beta  occ. eigenvalues --   -0.58382  -0.58363  -0.58309  -0.58216  -0.57826
  Beta  occ. eigenvalues --   -0.57153  -0.57049  -0.56922  -0.56817  -0.56744
  Beta  occ. eigenvalues --   -0.56513  -0.56228  -0.56001  -0.55863  -0.55806
  Beta  occ. eigenvalues --   -0.55644  -0.55063  -0.54755  -0.54349  -0.53823
  Beta  occ. eigenvalues --   -0.53447  -0.53012  -0.52908  -0.52801  -0.52754
  Beta  occ. eigenvalues --   -0.52468  -0.52432  -0.52396  -0.52209  -0.52145
  Beta  occ. eigenvalues --   -0.51680  -0.50851  -0.50719  -0.50698  -0.50596
  Beta  occ. eigenvalues --   -0.50533  -0.50163  -0.50086  -0.49777  -0.49346
  Beta  occ. eigenvalues --   -0.49325  -0.49042  -0.48894  -0.48737  -0.48615
  Beta  occ. eigenvalues --   -0.48279  -0.47827  -0.47777  -0.47701  -0.47560
  Beta  occ. eigenvalues --   -0.47145  -0.46505  -0.46488  -0.46443  -0.46353
  Beta  occ. eigenvalues --   -0.46043  -0.45703  -0.45594  -0.45500  -0.45408
  Beta  occ. eigenvalues --   -0.45250  -0.44969  -0.44869  -0.44798  -0.44651
  Beta  occ. eigenvalues --   -0.44575  -0.44329  -0.44107  -0.43920  -0.43818
  Beta  occ. eigenvalues --   -0.43606  -0.42782  -0.42675  -0.42647  -0.42588
  Beta  occ. eigenvalues --   -0.42440  -0.37175  -0.36759  -0.36180  -0.35438
  Beta  occ. eigenvalues --   -0.34743  -0.34214  -0.34143  -0.34028  -0.33798
  Beta  occ. eigenvalues --   -0.33580  -0.32506  -0.32308  -0.32251  -0.32175
  Beta  occ. eigenvalues --   -0.32168  -0.31960  -0.31260  -0.29965  -0.28830
  Beta  occ. eigenvalues --   -0.28054
  Beta virt. eigenvalues --    0.01533   0.02460   0.03719   0.05062   0.07069
  Beta virt. eigenvalues --    0.08036   0.09379   0.09463   0.09621   0.09822
  Beta virt. eigenvalues --    0.09877   0.09944   0.10807   0.11561   0.12076

 Mulliken charges and spin densities:
               1          2
     1  C    0.020117  -0.000000
     2  C   -0.065654   0.000000
     3  C    0.130794   0.000000
     4  O   -0.240631   0.000000
     5  C    0.045108   0.000000
     6  C   -0.052822  -0.000000
     7  C    0.130248   0.000000
     8  O   -0.243714   0.000000
     9  C    0.044548  -0.000000
    10  C   -0.065797  -0.000000
    11  C   -0.173152  -0.000000
    12  C    0.163399   0.000000
    13  F   -0.124878  -0.000000
    14  C    0.001372  -0.000000
    15  C   -0.161122  -0.000000
    16  S    0.191495   0.000000
    17  C    0.046197   0.000000
    18  C   -0.065707   0.000000
    19  C    0.137681  -0.000000
    20  O   -0.241971   0.000000
    21  C    0.045996   0.000000
    22  C   -0.040796   0.000000
    23  C    0.141548  -0.000000
    24  O   -0.245068   0.000000
    25  C    0.046808   0.000000
    26  C   -0.067320  -0.000000
    27  C   -0.176693  -0.000000
    28  C    0.161632   0.000000
    29  F   -0.124077   0.000000
    30  C    0.002342   0.000000
    31  C   -0.161002  -0.000000
    32  S    0.191952   0.000000
    33  C    0.045669   0.000000
    34  C   -0.065449  -0.000000
    35  C    0.137568  -0.000000
    36  O   -0.241939   0.000000
    37  C    0.045963   0.000000
    38  C   -0.040500   0.000000
    39  C    0.141523  -0.000000
    40  O   -0.245062  -0.000000
    41  C    0.046792   0.000000
    42  C   -0.067070   0.000000
    43  C   -0.176798  -0.000000
    44  C    0.161557   0.000000
    45  F   -0.124117  -0.000000
    46  C    0.002449  -0.000000
    47  C   -0.161020  -0.000000
    48  S    0.191987  -0.000000
    49  C    0.045466   0.000000
    50  C   -0.067129  -0.000000
    51  C    0.141385   0.000000
    52  O   -0.244951   0.000000
    53  C    0.046873   0.000000
    54  C   -0.040322  -0.000000
    55  C    0.137549  -0.000000
    56  O   -0.241712   0.000000
    57  C    0.045975  -0.000000
    58  C   -0.065377   0.000000
    59  C   -0.176849  -0.000000
    60  C    0.161241   0.000000
    61  F   -0.124262  -0.000000
    62  C    0.002753  -0.000000
    63  C   -0.159500   0.000000
    64  S    0.190980   0.000000
    65  C    0.042875  -0.000000
    66  C   -0.067453   0.000000
    67  C    0.144161  -0.000000
    68  O   -0.240876   0.000000
    69  C    0.047588  -0.000000
    70  C   -0.038370  -0.000000
    71  C    0.140434   0.000000
    72  O   -0.243961   0.000000
    73  C    0.045501  -0.000000
    74  C   -0.066658  -0.000000
    75  C   -0.181987   0.000000
    76  C    0.144363   0.000000
    77  F   -0.127026  -0.000000
    78  C    0.021419  -0.000000
    79  C   -0.141014   0.000000
    80  S    0.180921  -0.000000
    81  H    0.006040   0.000000
    82  H    0.003141  -0.000000
    83  H    0.051515  -0.000000
    84  H    0.049532  -0.000000
    85  H    0.062617   0.000000
    86  H    0.062173   0.000000
    87  H    0.050394   0.000000
    88  H    0.052041   0.000000
    89  H    0.002265   0.000000
    90  H    0.011612   0.000000
    91  H    0.005162  -0.000000
    92  H    0.061946  -0.000000
    93  H    0.053675  -0.000000
    94  H    0.051671  -0.000000
    95  H    0.049823  -0.000000
    96  H    0.054777   0.000000
    97  H    0.062030  -0.000000
    98  H   -0.002884   0.000000
    99  H    0.011776   0.000000
   100  H    0.005118   0.000000
   101  H    0.051676   0.000000
   102  H    0.061957   0.000000
   103  H    0.053723  -0.000000
   104  H    0.062071  -0.000000
   105  H    0.054764  -0.000000
   106  H    0.049842  -0.000000
   107  H   -0.002858   0.000000
   108  H    0.011718  -0.000000
   109  H   -0.002994  -0.000000
   110  H    0.049726  -0.000000
   111  H    0.061843   0.000000
   112  H    0.054656   0.000000
   113  H    0.062132   0.000000
   114  H    0.051560   0.000000
   115  H    0.053603  -0.000000
   116  H    0.004990   0.000000
   117  H    0.012024  -0.000000
   118  H   -0.002849   0.000000
   119  H    0.047956   0.000000
   120  H    0.053832  -0.000000
   121  H    0.062613  -0.000000
   122  H    0.052141   0.000000
   123  H    0.062762   0.000000
   124  H    0.053279   0.000000
   125  H    0.003995   0.000000
   126  H    0.016080  -0.000000
   127  H    0.040909   0.000000
 Sum of Mulliken charges =  -0.00000  -0.00000

 Dipole moment (field-independent basis, Debye):
    X=              6.9206    Y=             -0.0001    Z=             -0.0098  Tot=              6.9206
 Quadrupole moment (field-independent basis, Debye-Ang):
   XX=           -411.3971   YY=           -421.6609   ZZ=           -477.6656
   XY=             19.1712   XZ=              3.2949   YZ=              9.3496

 Normal termination of Gaussian 16 at Sat Jul 25 11:34:34 2020.
