 Gaussian 16, Revision A.03,
 Gaussian 16:  EM64L-G16RevA.03 25-Dec-2016

 ---------------------------------------------------------------
 #P uLC-wPBE/cc-pVDZ iop(3/107=0216900000, 3/108=0216900000) opt
 ---------------------------------------------------------------

 -------------
 H12 C12 S1 O2
 -------------
 Symbolic Z-matrix:
 Charge =  0 Multiplicity = 1

 SCF Done:  E(ULC-wPBE) =  -1012.43752018     A.U. after   16 cycles
 SCF Done:  E(ULC-wPBE) =  -1012.46310061     A.U. after   14 cycles
 SCF Done:  E(ULC-wPBE) =  -1012.46790391     A.U. after   14 cycles
 SCF Done:  E(ULC-wPBE) =  -1012.46851688     A.U. after   13 cycles
 SCF Done:  E(ULC-wPBE) =  -1012.46920042     A.U. after   13 cycles
 SCF Done:  E(ULC-wPBE) =  -1012.46919543     A.U. after   14 cycles
 SCF Done:  E(ULC-wPBE) =  -1012.46974445     A.U. after   13 cycles
 SCF Done:  E(ULC-wPBE) =  -1012.46993967     A.U. after   13 cycles
 SCF Done:  E(ULC-wPBE) =  -1012.46996572     A.U. after   12 cycles
 SCF Done:  E(ULC-wPBE) =  -1012.46998292     A.U. after   10 cycles
 SCF Done:  E(ULC-wPBE) =  -1012.46998929     A.U. after   11 cycles
 SCF Done:  E(ULC-wPBE) =  -1012.46999092     A.U. after    9 cycles
 SCF Done:  E(ULC-wPBE) =  -1012.46999139     A.U. after    8 cycles
 SCF Done:  E(ULC-wPBE) =  -1012.46999152     A.U. after    8 cycles
 Optimization completed.
    -- Stationary point found.

                         Standard orientation:
 ---------------------------------------------------------------------
 Center     Atomic      Atomic             Coordinates (Angstroms)
 Number     Number       Type             X           Y           Z
 ---------------------------------------------------------------------
      1          6           0        3.234119    0.705055    0.086102
      2          6           0        2.766857   -0.612788    0.061411
      3          6           0        1.388295   -0.862710    0.094855
      4          8           0        0.850338   -2.116110    0.078246
      5          6           0        1.733517   -3.224404    0.017443
      6          6           0        0.449115    0.200730    0.154908
      7          6           0        0.961424    1.515904    0.161425
      8          8           0        0.114990    2.605721    0.236979
      9          6           0       -0.473056    2.954177   -1.017299
     10          6           0        2.338357    1.769709    0.129288
     11          6           0       -1.007199   -0.046469    0.247400
     12          6           0       -1.926895    0.643517    1.014963
     13          6           0       -3.268993    0.203234    0.826345
     14          6           0       -3.363981   -0.812124   -0.094713
     15         16           0       -1.818801   -1.256769   -0.716394
     16          1           0        4.314791    0.894893    0.066170
     17          1           0        3.481557   -1.440876    0.024628
     18          1           0        2.402583   -3.264032    0.901505
     19          1           0        2.350021   -3.209017   -0.904938
     20          1           0        1.090698   -4.120111    0.009320
     21          1           0        0.306740    3.230756   -1.757594
     22          1           0       -1.122277    3.826609   -0.828785
     23          1           0       -1.086650    2.125011   -1.424844
     24          1           0        2.674399    2.812803    0.147478
     25          1           0       -1.632254    1.456637    1.684577
     26          1           0       -4.131536    0.622196    1.355699
     27          1           0       -4.259236   -1.346435   -0.425486
 ---------------------------------------------------------------------

 The electronic state is 1-A.
 Alpha  occ. eigenvalues --  -88.20990 -18.92335 -18.89884 -10.08448 -10.07772
 Alpha  occ. eigenvalues --  -10.07374 -10.06159 -10.04688 -10.03742 -10.03487
 Alpha  occ. eigenvalues --  -10.02764 -10.02105 -10.01588 -10.01446 -10.01314
 Alpha  occ. eigenvalues --   -7.81361  -5.83342  -5.82862  -5.82513  -1.10909
 Alpha  occ. eigenvalues --   -1.08464  -0.92541  -0.89953  -0.82787  -0.80572
 Alpha  occ. eigenvalues --   -0.78026  -0.77135  -0.74918  -0.73464  -0.67205
 Alpha  occ. eigenvalues --   -0.64722  -0.61577  -0.60661  -0.58641  -0.56535
 Alpha  occ. eigenvalues --   -0.55847  -0.53913  -0.53493  -0.52606  -0.51652
 Alpha  occ. eigenvalues --   -0.50337  -0.47809  -0.47361  -0.45970  -0.45063
 Alpha  occ. eigenvalues --   -0.44618  -0.43799  -0.43671  -0.42699  -0.40639
 Alpha  occ. eigenvalues --   -0.40045  -0.38716  -0.38256  -0.33861  -0.32415
 Alpha  occ. eigenvalues --   -0.30897  -0.29485  -0.27199
 Alpha virt. eigenvalues --    0.02582   0.06619   0.07732   0.11653   0.12700
 Alpha virt. eigenvalues --    0.13306   0.14424   0.14974   0.15986   0.16994
 Alpha virt. eigenvalues --    0.18157   0.18316   0.19307   0.19647   0.19827

  Beta  occ. eigenvalues --  -88.20990 -18.92335 -18.89884 -10.08448 -10.07772
  Beta  occ. eigenvalues --  -10.07374 -10.06159 -10.04688 -10.03742 -10.03487
  Beta  occ. eigenvalues --  -10.02764 -10.02105 -10.01588 -10.01446 -10.01314
  Beta  occ. eigenvalues --   -7.81361  -5.83342  -5.82862  -5.82513  -1.10909
  Beta  occ. eigenvalues --   -1.08464  -0.92541  -0.89953  -0.82787  -0.80572
  Beta  occ. eigenvalues --   -0.78026  -0.77135  -0.74918  -0.73464  -0.67205
  Beta  occ. eigenvalues --   -0.64722  -0.61577  -0.60661  -0.58641  -0.56535
  Beta  occ. eigenvalues --   -0.55847  -0.53913  -0.53493  -0.52606  -0.51652
  Beta  occ. eigenvalues --   -0.50337  -0.47809  -0.47361  -0.45970  -0.45063
  Beta  occ. eigenvalues --   -0.44618  -0.43799  -0.43671  -0.42699  -0.40639
  Beta  occ. eigenvalues --   -0.40045  -0.38716  -0.38256  -0.33861  -0.32415
  Beta  occ. eigenvalues --   -0.30897  -0.29485  -0.27199
  Beta virt. eigenvalues --    0.02582   0.06619   0.07732   0.11653   0.12700
  Beta virt. eigenvalues --    0.13306   0.14424   0.14974   0.15986   0.16994
  Beta virt. eigenvalues --    0.18157   0.18316   0.19307   0.19647   0.19827

 Mulliken charges and spin densities:
               1          2
     1  C    0.037568   0.000000
     2  C   -0.028178  -0.000000
     3  C    0.098843   0.000000
     4  O   -0.239129   0.000000
     5  C    0.063130   0.000000
     6  C    0.070928   0.000000
     7  C   -0.005633   0.000000
     8  O   -0.263295   0.000000
     9  C    0.075501   0.000000
    10  C    0.049332  -0.000000
    11  C   -0.176752  -0.000000
    12  C    0.034321  -0.000000
    13  C    0.057284   0.000000
    14  C   -0.132786  -0.000000
    15  S    0.158827  -0.000000
    16  H   -0.014594   0.000000
    17  H   -0.017407  -0.000000
    18  H    0.045948   0.000000
    19  H    0.044526   0.000000
    20  H    0.053422  -0.000000
    21  H    0.029334  -0.000000
    22  H    0.043819   0.000000
    23  H    0.047523   0.000000
    24  H   -0.024175  -0.000000
    25  H   -0.011047   0.000000
    26  H   -0.015196  -0.000000
    27  H    0.017885   0.000000
 Sum of Mulliken charges =  -0.00000   0.00000

 Dipole moment (field-independent basis, Debye):
    X=              1.0029    Y=             -1.0369    Z=             -0.9484  Tot=              1.7264
 Quadrupole moment (field-independent basis, Debye-Ang):
   XX=            -82.8583   YY=            -84.5682   ZZ=            -96.3489
   XY=             -4.7793   XZ=             -0.3110   YZ=             -1.1985

 Normal termination of Gaussian 16 at Mon Jul 27 11:41:48 2020.
