 Gaussian 16, Revision A.03,
 Gaussian 16:  EM64L-G16RevA.03 25-Dec-2016

 ---------------------------------------------------------------
 #P uLC-wPBE/cc-pVDZ iop(3/107=0396600000, 3/108=0396600000) opt
 ---------------------------------------------------------------

 --------------
 H22 C40 S5 N10
 --------------
 Symbolic Z-matrix:
 Charge =  0 Multiplicity = 1

 SCF Done:  E(ULC-wPBE) =  -4073.85436785     A.U. after   17 cycles
 SCF Done:  E(ULC-wPBE) =  -4073.93257694     A.U. after   14 cycles
 SCF Done:  E(ULC-wPBE) =  -4073.98808685     A.U. after   15 cycles
 SCF Done:  E(ULC-wPBE) =  -4074.00137770     A.U. after   15 cycles
 SCF Done:  E(ULC-wPBE) =  -4074.00324781     A.U. after   15 cycles
 SCF Done:  E(ULC-wPBE) =  -4074.00361714     A.U. after   13 cycles
 SCF Done:  E(ULC-wPBE) =  -4074.00390506     A.U. after   13 cycles
 SCF Done:  E(ULC-wPBE) =  -4074.00397300     A.U. after   13 cycles
 SCF Done:  E(ULC-wPBE) =  -4074.00403179     A.U. after   12 cycles
 SCF Done:  E(ULC-wPBE) =  -4074.00405369     A.U. after   12 cycles
 SCF Done:  E(ULC-wPBE) =  -4074.00406921     A.U. after   12 cycles
 SCF Done:  E(ULC-wPBE) =  -4074.00407577     A.U. after   11 cycles
 SCF Done:  E(ULC-wPBE) =  -4074.00408155     A.U. after   11 cycles
 SCF Done:  E(ULC-wPBE) =  -4074.00408263     A.U. after   11 cycles
 SCF Done:  E(ULC-wPBE) =  -4074.00408285     A.U. after    8 cycles
 SCF Done:  E(ULC-wPBE) =  -4074.00408316     A.U. after    8 cycles
 SCF Done:  E(ULC-wPBE) =  -4074.00408327     A.U. after    8 cycles
 SCF Done:  E(ULC-wPBE) =  -4074.00408335     A.U. after    7 cycles
 SCF Done:  E(ULC-wPBE) =  -4074.00408335     A.U. after    7 cycles
 SCF Done:  E(ULC-wPBE) =  -4074.00408336     A.U. after    6 cycles
 Optimization completed.
    -- Stationary point found.

                         Standard orientation:
 ---------------------------------------------------------------------
 Center     Atomic      Atomic             Coordinates (Angstroms)
 Number     Number       Type             X           Y           Z
 ---------------------------------------------------------------------
      1          6           0       18.919147    1.632992    0.587880
      2          6           0       18.861261    0.248142    0.499796
      3          6           0       17.627581   -0.362195    0.342838
      4          6           0       16.499508    0.450851    0.281332
      5          7           0       16.540397    1.779953    0.364809
      6          6           0       17.731211    2.349714    0.514648
      7          6           0       15.160968   -0.143473    0.114415
      8          7           0       14.927736   -1.417524    0.020401
      9          6           0       13.590608   -1.647258   -0.126752
     10          6           0       12.788263   -0.541142   -0.148319
     11         16           0       13.767386    0.868253    0.025027
     12          6           0       11.327783   -0.484323   -0.288576
     13          6           0       10.552842    0.495841    0.326591
     14          6           0        9.179114    0.478938    0.160294
     15          6           0        8.606499   -0.531079   -0.610235
     16          7           0        9.334390   -1.471708   -1.212123
     17          6           0       10.647597   -1.434256   -1.058825
     18          6           0        7.141046   -0.610254   -0.813820
     19          7           0        6.573337   -1.319733   -1.738989
     20          6           0        5.216911   -1.196893   -1.679676
     21          6           0        4.717195   -0.389665   -0.697776
     22         16           0        6.035991    0.250190    0.208320
     23          6           0        3.315140   -0.074283   -0.396970
     24          6           0        2.912960    1.171911    0.085709
     25          6           0        1.573293    1.407624    0.332759
     26          6           0        0.667083    0.382121    0.079918
     27          7           0        1.029648   -0.816570   -0.375173
     28          6           0        2.317626   -1.032992   -0.597013
     29          6           0       -0.772731    0.581393    0.313452
     30          7           0       -1.297373    1.683499    0.758118
     31          6           0       -2.651187    1.555446    0.867219
     32          6           0       -3.173595    0.346377    0.501418
     33         16           0       -1.892697   -0.689096   -0.009108
     34          6           0       -4.580590   -0.074788    0.515832
     35          6           0       -4.967173   -1.386045    0.797285
     36          6           0       -6.310386   -1.713130    0.809773
     37          6           0       -7.235537   -0.707752    0.544697
     38          7           0       -6.888476    0.548458    0.267233
     39          6           0       -5.597667    0.845811    0.247725
     40          6           0       -8.679079   -0.996552    0.556546
     41          7           0       -9.190732   -2.164170    0.807340
     42          6           0      -10.552124   -2.109677    0.742605
     43          6           0      -11.094123   -0.891406    0.441538
     44         16           0       -9.821366    0.252484    0.228924
     45          6           0      -12.514576   -0.543693    0.303515
     46          6           0      -13.496721   -1.187335    1.058927
     47          6           0      -14.824356   -0.846126    0.882696
     48          6           0      -15.133546    0.147514   -0.042256
     49          7           0      -14.212148    0.779409   -0.767459
     50          6           0      -12.944044    0.434958   -0.596186
     51          6           0      -16.532079    0.555672   -0.260763
     52          7           0      -17.548069    0.040892    0.364150
     53          6           0      -18.710575    0.626654   -0.055981
     54          6           0      -18.571076    1.590801   -1.005196
     55         16           0      -16.918189    1.788626   -1.403593
     56          1           0       19.868887    2.154457    0.711482
     57          1           0       19.771736   -0.351661    0.552831
     58          1           0       17.509680   -1.442775    0.266546
     59          1           0       17.736301    3.441652    0.579995
     60          1           0       13.231127   -2.673977   -0.194967
     61          1           0       11.022016    1.267879    0.939815
     62          1           0        8.561794    1.248794    0.625653
     63          1           0       11.212980   -2.205451   -1.591030
     64          1           0        4.604809   -1.716593   -2.417021
     65          1           0        3.649900    1.959835    0.255288
     66          1           0        1.207223    2.363231    0.706621
     67          1           0        2.585733   -2.034814   -0.944525
     68          1           0       -3.235897    2.390703    1.252563
     69          1           0       -4.214440   -2.145905    1.017909
     70          1           0       -6.664270   -2.720476    1.026491
     71          1           0       -5.344959    1.878355   -0.009992
     72          1           0      -11.129328   -3.019677    0.906681
     73          1           0      -13.215109   -1.942676    1.794667
     74          1           0      -15.628798   -1.316133    1.447485
     75          1           0      -12.215159    0.963072   -1.219298
     76          1           0      -19.657866    0.303789    0.374835
     77          1           0      -19.350146    2.182850   -1.479680
 ---------------------------------------------------------------------

 The electronic state is 1-A.
 Alpha  occ. eigenvalues --  -88.33927 -88.33591 -88.33405 -88.33336 -88.32661
 Alpha  occ. eigenvalues --  -14.23519 -14.23274 -14.22941 -14.22869 -14.22862
 Alpha  occ. eigenvalues --  -14.22670 -14.22657 -14.22633 -14.22444 -14.21936
 Alpha  occ. eigenvalues --  -10.19879 -10.19660 -10.19462 -10.19392 -10.18699
 Alpha  occ. eigenvalues --  -10.18419 -10.18393 -10.18145 -10.17964 -10.17747
 Alpha  occ. eigenvalues --  -10.17494 -10.17446 -10.17260 -10.17116 -10.17025
 Alpha  occ. eigenvalues --  -10.16940 -10.16908 -10.16877 -10.16832 -10.16475
 Alpha  occ. eigenvalues --  -10.16187 -10.16161 -10.16068 -10.16025 -10.15964
 Alpha  occ. eigenvalues --  -10.15883 -10.15843 -10.15811 -10.15786 -10.15679
 Alpha  occ. eigenvalues --  -10.15353 -10.15345 -10.15238 -10.15050 -10.14986
 Alpha  occ. eigenvalues --  -10.14609 -10.14348 -10.14231 -10.14063 -10.13950
 Alpha  occ. eigenvalues --   -7.94768  -7.94367  -7.94181  -7.94109  -7.93446
 Alpha  occ. eigenvalues --   -5.96267  -5.95870  -5.95762  -5.95684  -5.95612
 Alpha  occ. eigenvalues --   -5.95391  -5.95355  -5.95169  -5.95096  -5.95009
 Alpha  occ. eigenvalues --   -5.94939  -5.94822  -5.94752  -5.94423  -5.94108
 Alpha  occ. eigenvalues --   -1.13717  -1.13515  -1.13398  -1.13332  -1.12699
 Alpha  occ. eigenvalues --   -1.11356  -1.10997  -1.10825  -1.10560  -1.10458
 Alpha  occ. eigenvalues --   -1.00247  -0.99914  -0.99581  -0.99524  -0.96777
 Alpha  occ. eigenvalues --   -0.96293  -0.96050  -0.95813  -0.95359  -0.94925
 Alpha  occ. eigenvalues --   -0.94761  -0.94689  -0.94361  -0.93960  -0.93525
 Alpha  occ. eigenvalues --   -0.90923  -0.89735  -0.88464  -0.87324  -0.86435
 Alpha  occ. eigenvalues --   -0.82112  -0.80850  -0.80436  -0.80065  -0.79448
 Alpha  occ. eigenvalues --   -0.78998  -0.78850  -0.78433  -0.77890  -0.77370
 Alpha  occ. eigenvalues --   -0.72811  -0.72455  -0.72132  -0.71990  -0.71682
 Alpha  occ. eigenvalues --   -0.71193  -0.71118  -0.70628  -0.70470  -0.70347
 Alpha  occ. eigenvalues --   -0.67434  -0.66812  -0.66175  -0.65662  -0.64609
 Alpha  occ. eigenvalues --   -0.64276  -0.63764  -0.63454  -0.63204  -0.62580
 Alpha  occ. eigenvalues --   -0.62452  -0.61043  -0.60242  -0.59659  -0.59188
 Alpha  occ. eigenvalues --   -0.58992  -0.58819  -0.58723  -0.58482  -0.58284
 Alpha  occ. eigenvalues --   -0.58264  -0.58125  -0.57700  -0.57527  -0.57465
 Alpha  occ. eigenvalues --   -0.55800  -0.55463  -0.55349  -0.55189  -0.55043
 Alpha  occ. eigenvalues --   -0.54859  -0.54699  -0.54464  -0.54140  -0.53718
 Alpha  occ. eigenvalues --   -0.53548  -0.53499  -0.53299  -0.53084  -0.53032
 Alpha  occ. eigenvalues --   -0.52126  -0.51075  -0.50861  -0.50492  -0.49703
 Alpha  occ. eigenvalues --   -0.49545  -0.48954  -0.48607  -0.48399  -0.48301
 Alpha  occ. eigenvalues --   -0.47782  -0.45572  -0.44719  -0.43667  -0.42864
 Alpha  occ. eigenvalues --   -0.41531  -0.41130  -0.40931  -0.40834  -0.40700
 Alpha  occ. eigenvalues --   -0.40571  -0.40424  -0.40350  -0.39893  -0.39731
 Alpha  occ. eigenvalues --   -0.39688  -0.39603  -0.39390  -0.39342  -0.39103
 Alpha  occ. eigenvalues --   -0.38931  -0.38758  -0.38605  -0.38485  -0.38278
 Alpha  occ. eigenvalues --   -0.38145  -0.36273  -0.34791  -0.33125  -0.31733
 Alpha  occ. eigenvalues --   -0.30828
 Alpha virt. eigenvalues --   -0.02283  -0.01124   0.00223   0.01817   0.02992
 Alpha virt. eigenvalues --    0.04196   0.04505   0.04519   0.04923   0.05047
 Alpha virt. eigenvalues --    0.06791   0.08084   0.09522   0.10731   0.10994

  Beta  occ. eigenvalues --  -88.33927 -88.33591 -88.33405 -88.33336 -88.32661
  Beta  occ. eigenvalues --  -14.23519 -14.23274 -14.22941 -14.22869 -14.22862
  Beta  occ. eigenvalues --  -14.22670 -14.22657 -14.22633 -14.22444 -14.21936
  Beta  occ. eigenvalues --  -10.19879 -10.19660 -10.19462 -10.19392 -10.18699
  Beta  occ. eigenvalues --  -10.18419 -10.18393 -10.18145 -10.17964 -10.17747
  Beta  occ. eigenvalues --  -10.17494 -10.17446 -10.17260 -10.17116 -10.17025
  Beta  occ. eigenvalues --  -10.16940 -10.16908 -10.16877 -10.16832 -10.16475
  Beta  occ. eigenvalues --  -10.16187 -10.16161 -10.16068 -10.16025 -10.15964
  Beta  occ. eigenvalues --  -10.15883 -10.15843 -10.15811 -10.15786 -10.15679
  Beta  occ. eigenvalues --  -10.15353 -10.15345 -10.15238 -10.15050 -10.14986
  Beta  occ. eigenvalues --  -10.14609 -10.14348 -10.14231 -10.14063 -10.13950
  Beta  occ. eigenvalues --   -7.94768  -7.94367  -7.94181  -7.94109  -7.93446
  Beta  occ. eigenvalues --   -5.96267  -5.95870  -5.95762  -5.95684  -5.95612
  Beta  occ. eigenvalues --   -5.95391  -5.95355  -5.95169  -5.95096  -5.95009
  Beta  occ. eigenvalues --   -5.94939  -5.94822  -5.94752  -5.94423  -5.94108
  Beta  occ. eigenvalues --   -1.13717  -1.13515  -1.13398  -1.13332  -1.12699
  Beta  occ. eigenvalues --   -1.11356  -1.10997  -1.10825  -1.10560  -1.10458
  Beta  occ. eigenvalues --   -1.00247  -0.99914  -0.99581  -0.99524  -0.96777
  Beta  occ. eigenvalues --   -0.96293  -0.96050  -0.95813  -0.95359  -0.94925
  Beta  occ. eigenvalues --   -0.94761  -0.94689  -0.94361  -0.93960  -0.93525
  Beta  occ. eigenvalues --   -0.90923  -0.89735  -0.88464  -0.87324  -0.86435
  Beta  occ. eigenvalues --   -0.82112  -0.80850  -0.80436  -0.80065  -0.79448
  Beta  occ. eigenvalues --   -0.78998  -0.78850  -0.78433  -0.77890  -0.77370
  Beta  occ. eigenvalues --   -0.72811  -0.72455  -0.72132  -0.71990  -0.71682
  Beta  occ. eigenvalues --   -0.71193  -0.71118  -0.70628  -0.70470  -0.70347
  Beta  occ. eigenvalues --   -0.67434  -0.66812  -0.66175  -0.65662  -0.64609
  Beta  occ. eigenvalues --   -0.64276  -0.63764  -0.63454  -0.63204  -0.62580
  Beta  occ. eigenvalues --   -0.62452  -0.61043  -0.60242  -0.59659  -0.59188
  Beta  occ. eigenvalues --   -0.58992  -0.58819  -0.58723  -0.58482  -0.58284
  Beta  occ. eigenvalues --   -0.58264  -0.58125  -0.57700  -0.57527  -0.57465
  Beta  occ. eigenvalues --   -0.55800  -0.55463  -0.55349  -0.55189  -0.55043
  Beta  occ. eigenvalues --   -0.54859  -0.54699  -0.54464  -0.54140  -0.53718
  Beta  occ. eigenvalues --   -0.53548  -0.53499  -0.53299  -0.53084  -0.53032
  Beta  occ. eigenvalues --   -0.52126  -0.51075  -0.50861  -0.50492  -0.49703
  Beta  occ. eigenvalues --   -0.49545  -0.48954  -0.48607  -0.48399  -0.48301
  Beta  occ. eigenvalues --   -0.47782  -0.45572  -0.44719  -0.43667  -0.42864
  Beta  occ. eigenvalues --   -0.41531  -0.41130  -0.40931  -0.40834  -0.40700
  Beta  occ. eigenvalues --   -0.40571  -0.40424  -0.40350  -0.39893  -0.39731
  Beta  occ. eigenvalues --   -0.39688  -0.39603  -0.39390  -0.39342  -0.39103
  Beta  occ. eigenvalues --   -0.38931  -0.38758  -0.38605  -0.38485  -0.38278
  Beta  occ. eigenvalues --   -0.38145  -0.36273  -0.34791  -0.33125  -0.31733
  Beta  occ. eigenvalues --   -0.30828
  Beta virt. eigenvalues --   -0.02283  -0.01124   0.00223   0.01817   0.02992
  Beta virt. eigenvalues --    0.04196   0.04505   0.04519   0.04923   0.05047
  Beta virt. eigenvalues --    0.06791   0.08084   0.09522   0.10731   0.10994

 Mulliken charges and spin densities:
               1          2
     1  C   -0.058766  -0.000000
     2  C    0.061078   0.000000
     3  C    0.012193  -0.000000
     4  C    0.066070   0.000000
     5  N   -0.214773  -0.000000
     6  C    0.086913   0.000000
     7  C   -0.002913  -0.000000
     8  N   -0.185566   0.000000
     9  C    0.116666  -0.000000
    10  C   -0.231597   0.000000
    11  S    0.203106  -0.000000
    12  C   -0.040556  -0.000000
    13  C    0.061755  -0.000000
    14  C   -0.012824   0.000000
    15  C    0.073469  -0.000000
    16  N   -0.164065   0.000000
    17  C    0.090230   0.000000
    18  C   -0.010044  -0.000000
    19  N   -0.147268   0.000000
    20  C    0.116200   0.000000
    21  C   -0.216446  -0.000000
    22  S    0.149100  -0.000000
    23  C   -0.046887   0.000000
    24  C    0.065635  -0.000000
    25  C    0.031360   0.000000
    26  C    0.071182   0.000000
    27  N   -0.210787  -0.000000
    28  C    0.099254  -0.000000
    29  C   -0.008989  -0.000000
    30  N   -0.186735  -0.000000
    31  C    0.116636   0.000000
    32  C   -0.231515  -0.000000
    33  S    0.208759   0.000000
    34  C   -0.047882   0.000000
    35  C    0.065733   0.000000
    36  C    0.031143  -0.000000
    37  C    0.070899  -0.000000
    38  N   -0.210800   0.000000
    39  C    0.098156  -0.000000
    40  C   -0.009868  -0.000000
    41  N   -0.186689  -0.000000
    42  C    0.114243   0.000000
    43  C   -0.231662  -0.000000
    44  S    0.211065  -0.000000
    45  C   -0.042706   0.000000
    46  C    0.061051  -0.000000
    47  C    0.030380   0.000000
    48  C    0.077516   0.000000
    49  N   -0.209231  -0.000000
    50  C    0.096137  -0.000000
    51  C   -0.026628  -0.000000
    52  N   -0.193229   0.000000
    53  C    0.105556   0.000000
    54  C   -0.193527  -0.000000
    55  S    0.202899   0.000000
    56  H    0.018307  -0.000000
    57  H    0.022127  -0.000000
    58  H    0.025916  -0.000000
    59  H    0.024929   0.000000
    60  H    0.025088   0.000000
    61  H    0.018586   0.000000
    62  H    0.023580  -0.000000
    63  H    0.024314   0.000000
    64  H    0.026852   0.000000
    65  H    0.017676  -0.000000
    66  H    0.026391   0.000000
    67  H    0.025159  -0.000000
    68  H    0.024549  -0.000000
    69  H    0.020327   0.000000
    70  H    0.026031   0.000000
    71  H    0.023089   0.000000
    72  H    0.021696  -0.000000
    73  H    0.013341   0.000000
    74  H    0.024891  -0.000000
    75  H    0.027701   0.000000
    76  H    0.019940   0.000000
    77  H    0.047075   0.000000
 Sum of Mulliken charges =  -0.00000  -0.00000

 Dipole moment (field-independent basis, Debye):
    X=              4.4246    Y=              1.6483    Z=              2.2705  Tot=              5.2392
 Quadrupole moment (field-independent basis, Debye-Ang):
   XX=           -230.9403   YY=           -334.6314   ZZ=           -350.3295
   XY=             23.9526   XZ=             16.9812   YZ=             -2.8633

 Normal termination of Gaussian 16 at Sat Jul 25 08:51:38 2020.
