 Gaussian 16, Revision A.03,
 Gaussian 16:  EM64L-G16RevA.03 25-Dec-2016

 ---------------------------------------------------------------
 #P uLC-wPBE/cc-pVDZ iop(3/107=0165100000, 3/108=0165100000) opt
 ---------------------------------------------------------------

 ---------------
 H8 C11 S1 O1 F2
 ---------------
 Symbolic Z-matrix:
 Charge =  0 Multiplicity = 1

 SCF Done:  E(ULC-wPBE) =  -1096.30158572     A.U. after   16 cycles
 SCF Done:  E(ULC-wPBE) =  -1096.33091546     A.U. after   14 cycles
 SCF Done:  E(ULC-wPBE) =  -1096.33808573     A.U. after   14 cycles
 SCF Done:  E(ULC-wPBE) =  -1096.33892100     A.U. after   13 cycles
 SCF Done:  E(ULC-wPBE) =  -1096.33927406     A.U. after   14 cycles
 SCF Done:  E(ULC-wPBE) =  -1096.33944630     A.U. after   12 cycles
 SCF Done:  E(ULC-wPBE) =  -1096.33947362     A.U. after   13 cycles
 SCF Done:  E(ULC-wPBE) =  -1096.33950060     A.U. after   11 cycles
 SCF Done:  E(ULC-wPBE) =  -1096.33950627     A.U. after   11 cycles
 SCF Done:  E(ULC-wPBE) =  -1096.33950766     A.U. after    9 cycles
 SCF Done:  E(ULC-wPBE) =  -1096.33950782     A.U. after    8 cycles
 SCF Done:  E(ULC-wPBE) =  -1096.33950788     A.U. after    7 cycles
 SCF Done:  E(ULC-wPBE) =  -1096.33950789     A.U. after    7 cycles
 Optimization completed.
    -- Stationary point found.

                         Standard orientation:
 ---------------------------------------------------------------------
 Center     Atomic      Atomic             Coordinates (Angstroms)
 Number     Number       Type             X           Y           Z
 ---------------------------------------------------------------------
      1          6           0       -3.281958   -0.929426    0.095746
      2          6           0       -2.380721   -1.974002    0.309264
      3          6           0       -1.016831   -1.681430    0.271452
      4          9           0       -0.137984   -2.691480    0.481766
      5          6           0       -0.504975   -0.397769    0.029605
      6          6           0       -1.451114    0.639324   -0.203553
      7          8           0       -0.918497    1.861385   -0.475201
      8          6           0       -1.813934    2.949247   -0.666375
      9          6           0       -2.830295    0.371850   -0.160160
     10          6           0        0.942994   -0.130499    0.017106
     11          6           0        1.639861    0.861863    0.680009
     12          9           0        1.046677    1.742948    1.510299
     13          6           0        3.043779    0.883390    0.446733
     14          6           0        3.418710   -0.120261   -0.415218
     15         16           0        2.071556   -1.076427   -0.927021
     16          1           0       -4.361708   -1.128279    0.124284
     17          1           0       -2.704846   -3.001876    0.509775
     18          1           0       -2.475805    2.788859   -1.544160
     19          1           0       -2.438852    3.128250    0.234172
     20          1           0       -1.177051    3.831972   -0.848209
     21          1           0       -3.557783    1.172253   -0.333749
     22          1           0        3.723958    1.606620    0.908666
     23          1           0        4.423830   -0.362964   -0.773074
 ---------------------------------------------------------------------

 The electronic state is 1-A.
 Alpha  occ. eigenvalues --  -88.19268 -24.37723 -24.37374 -18.89928 -10.07544
 Alpha  occ. eigenvalues --  -10.06705 -10.06246 -10.05131 -10.02369 -10.02227
 Alpha  occ. eigenvalues --  -10.01434 -10.00744  -9.99922  -9.99775  -9.99578
 Alpha  occ. eigenvalues --   -7.79575  -5.81629  -5.81171  -5.80760  -1.21209
 Alpha  occ. eigenvalues --   -1.20820  -1.08255  -0.90657  -0.87927  -0.80743
 Alpha  occ. eigenvalues --   -0.77866  -0.75976  -0.74616  -0.72824  -0.66009
 Alpha  occ. eigenvalues --   -0.63868  -0.61201  -0.60166  -0.58575  -0.56410
 Alpha  occ. eigenvalues --   -0.54542  -0.52613  -0.51445  -0.51297  -0.49400
 Alpha  occ. eigenvalues --   -0.48618  -0.48558  -0.47802  -0.47658  -0.45869
 Alpha  occ. eigenvalues --   -0.43553  -0.42784  -0.42039  -0.40935  -0.40247
 Alpha  occ. eigenvalues --   -0.40075  -0.38399  -0.37518  -0.36819  -0.31879
 Alpha  occ. eigenvalues --   -0.29510  -0.28348  -0.26521
 Alpha virt. eigenvalues --    0.01147   0.04852   0.04979   0.08299   0.10769
 Alpha virt. eigenvalues --    0.11537   0.12538   0.13389   0.14350   0.15748
 Alpha virt. eigenvalues --    0.16512   0.17896   0.18056   0.18645   0.19750

  Beta  occ. eigenvalues --  -88.19268 -24.37723 -24.37374 -18.89928 -10.07544
  Beta  occ. eigenvalues --  -10.06705 -10.06246 -10.05131 -10.02369 -10.02227
  Beta  occ. eigenvalues --  -10.01434 -10.00744  -9.99922  -9.99775  -9.99578
  Beta  occ. eigenvalues --   -7.79575  -5.81629  -5.81171  -5.80760  -1.21209
  Beta  occ. eigenvalues --   -1.20820  -1.08255  -0.90657  -0.87927  -0.80743
  Beta  occ. eigenvalues --   -0.77866  -0.75976  -0.74616  -0.72824  -0.66009
  Beta  occ. eigenvalues --   -0.63868  -0.61201  -0.60166  -0.58575  -0.56410
  Beta  occ. eigenvalues --   -0.54542  -0.52613  -0.51445  -0.51297  -0.49400
  Beta  occ. eigenvalues --   -0.48618  -0.48558  -0.47802  -0.47658  -0.45869
  Beta  occ. eigenvalues --   -0.43553  -0.42784  -0.42039  -0.40935  -0.40247
  Beta  occ. eigenvalues --   -0.40075  -0.38399  -0.37518  -0.36819  -0.31879
  Beta  occ. eigenvalues --   -0.29510  -0.28348  -0.26521
  Beta virt. eigenvalues --    0.01147   0.04852   0.04979   0.08299   0.10769
  Beta virt. eigenvalues --    0.11537   0.12538   0.13389   0.14350   0.15748
  Beta virt. eigenvalues --    0.16512   0.17896   0.18056   0.18645   0.19750

 Mulliken charges and spin densities:
               1          2
     1  C    0.037931  -0.000000
     2  C    0.012084  -0.000000
     3  C    0.103086  -0.000000
     4  F   -0.121174   0.000000
     5  C   -0.021545   0.000000
     6  C    0.107296  -0.000000
     7  O   -0.224710   0.000000
     8  C    0.062077   0.000000
     9  C   -0.029943   0.000000
    10  C   -0.174610  -0.000000
    11  C    0.135244   0.000000
    12  F   -0.120260   0.000000
    13  C    0.052989   0.000000
    14  C   -0.122903  -0.000000
    15  S    0.177153   0.000000
    16  H   -0.011650  -0.000000
    17  H   -0.009136   0.000000
    18  H    0.044885   0.000000
    19  H    0.046894  -0.000000
    20  H    0.053132   0.000000
    21  H   -0.016932   0.000000
    22  H   -0.004282  -0.000000
    23  H    0.024374   0.000000
 Sum of Mulliken charges =  -0.00000   0.00000

 Dipole moment (field-independent basis, Debye):
    X=             -1.2307    Y=              1.6968    Z=             -0.8545  Tot=              2.2636
 Quadrupole moment (field-independent basis, Debye-Ang):
   XX=            -74.8907   YY=            -85.4225   ZZ=            -94.1446
   XY=             -1.9817   XZ=             -0.1441   YZ=             -1.1095

 Normal termination of Gaussian 16 at Sun Jul 26 12:39:12 2020.
