 Gaussian 16, Revision A.03,
 Gaussian 16:  EM64L-G16RevA.03 25-Dec-2016

 ---------------------------------------------------------------
 #P uLC-wPBE/cc-pVDZ iop(3/107=0441100000, 3/108=0441100000) opt
 ---------------------------------------------------------------

 ---------
 H9 C11 N1
 ---------
 Symbolic Z-matrix:
 Charge =  0 Multiplicity = 1

 SCF Done:  E(ULC-wPBE) =  -478.969993203     A.U. after   15 cycles
 SCF Done:  E(ULC-wPBE) =  -479.008556153     A.U. after   14 cycles
 SCF Done:  E(ULC-wPBE) =  -479.018075925     A.U. after   15 cycles
 SCF Done:  E(ULC-wPBE) =  -479.018355822     A.U. after   14 cycles
 SCF Done:  E(ULC-wPBE) =  -479.018465583     A.U. after   13 cycles
 SCF Done:  E(ULC-wPBE) =  -479.018508680     A.U. after   12 cycles
 SCF Done:  E(ULC-wPBE) =  -479.018578155     A.U. after   13 cycles
 SCF Done:  E(ULC-wPBE) =  -479.017086705     A.U. after   16 cycles
 SCF Done:  E(ULC-wPBE) =  -479.018615056     A.U. after   11 cycles
 SCF Done:  E(ULC-wPBE) =  -479.018644499     A.U. after   12 cycles
 SCF Done:  E(ULC-wPBE) =  -479.018656096     A.U. after   12 cycles
 SCF Done:  E(ULC-wPBE) =  -479.018661928     A.U. after   12 cycles
 SCF Done:  E(ULC-wPBE) =  -479.018668261     A.U. after   12 cycles
 SCF Done:  E(ULC-wPBE) =  -479.018669073     A.U. after   10 cycles
 SCF Done:  E(ULC-wPBE) =  -479.018669193     A.U. after   10 cycles
 SCF Done:  E(ULC-wPBE) =  -479.018669200     A.U. after    9 cycles
 Optimization completed.
    -- Stationary point found.

                         Standard orientation:
 ---------------------------------------------------------------------
 Center     Atomic      Atomic             Coordinates (Angstroms)
 Number     Number       Type             X           Y           Z
 ---------------------------------------------------------------------
      1          6           0       -3.495860   -0.091997    0.021567
      2          6           0       -2.882592    1.128554   -0.208759
      3          6           0       -1.500975    1.193280   -0.222633
      4          6           0       -0.763919    0.031106    0.002751
      5          7           0       -1.356433   -1.145037    0.209283
      6          6           0       -2.680894   -1.195684    0.217191
      7          6           0        0.724605    0.030113    0.004720
      8          6           0        1.463076    1.193766    0.207478
      9          6           0        2.849291    1.162150    0.199569
     10          6           0        3.518016   -0.034226   -0.011889
     11          6           0        2.790548   -1.200410   -0.205877
     12          6           0        1.406119   -1.168965   -0.192672
     13          1           0       -4.579681   -0.192163    0.041688
     14          1           0       -3.476137    2.025754   -0.384541
     15          1           0       -0.999707    2.136999   -0.425893
     16          1           0       -3.119650   -2.181231    0.391279
     17          1           0        0.957569    2.140041    0.396402
     18          1           0        3.411120    2.080863    0.366573
     19          1           0        4.607547   -0.058804   -0.019797
     20          1           0        3.307783   -2.145919   -0.368061
     21          1           0        0.821702   -2.076403   -0.331303
 ---------------------------------------------------------------------

 The electronic state is 1-A.
 Alpha  occ. eigenvalues --  -14.23496 -10.18972 -10.18046 -10.16763 -10.15406
 Alpha  occ. eigenvalues --  -10.15338 -10.15145 -10.14691 -10.14510 -10.14467
 Alpha  occ. eigenvalues --  -10.14259 -10.13909  -1.11950  -1.03170  -0.97448
 Alpha  occ. eigenvalues --   -0.95287  -0.90947  -0.89440  -0.79534  -0.79073
 Alpha  occ. eigenvalues --   -0.74565  -0.73518  -0.68384  -0.64231  -0.62704
 Alpha  occ. eigenvalues --   -0.61043  -0.57805  -0.57378  -0.55837  -0.55635
 Alpha  occ. eigenvalues --   -0.54755  -0.53265  -0.50862  -0.49724  -0.46513
 Alpha  occ. eigenvalues --   -0.45992  -0.41195  -0.39632  -0.37994  -0.36133
 Alpha  occ. eigenvalues --   -0.33378
 Alpha virt. eigenvalues --    0.03604   0.06184   0.08733   0.12121   0.15568
 Alpha virt. eigenvalues --    0.16619   0.18698   0.20697   0.21131   0.23105
 Alpha virt. eigenvalues --    0.23494   0.25048   0.25946   0.28741   0.30270

  Beta  occ. eigenvalues --  -14.23496 -10.18972 -10.18046 -10.16763 -10.15406
  Beta  occ. eigenvalues --  -10.15338 -10.15145 -10.14691 -10.14510 -10.14467
  Beta  occ. eigenvalues --  -10.14259 -10.13909  -1.11950  -1.03170  -0.97448
  Beta  occ. eigenvalues --   -0.95287  -0.90947  -0.89440  -0.79534  -0.79073
  Beta  occ. eigenvalues --   -0.74565  -0.73518  -0.68384  -0.64231  -0.62704
  Beta  occ. eigenvalues --   -0.61043  -0.57805  -0.57378  -0.55837  -0.55635
  Beta  occ. eigenvalues --   -0.54755  -0.53265  -0.50862  -0.49724  -0.46513
  Beta  occ. eigenvalues --   -0.45992  -0.41195  -0.39632  -0.37994  -0.36133
  Beta  occ. eigenvalues --   -0.33378
  Beta virt. eigenvalues --    0.03604   0.06184   0.08733   0.12121   0.15568
  Beta virt. eigenvalues --    0.16619   0.18698   0.20697   0.21131   0.23105
  Beta virt. eigenvalues --    0.23494   0.25048   0.25946   0.28741   0.30270

 Mulliken charges and spin densities:
               1          2
     1  C   -0.074429   0.000000
     2  C    0.058414  -0.000000
     3  C   -0.042426  -0.000000
     4  C    0.096796   0.000000
     5  N   -0.208785  -0.000000
     6  C    0.087694   0.000000
     7  C   -0.034005   0.000000
     8  C   -0.038868  -0.000000
     9  C    0.002683  -0.000000
    10  C   -0.003541   0.000000
    11  C    0.006764  -0.000000
    12  C    0.024351   0.000000
    13  H    0.017897  -0.000000
    14  H    0.021039   0.000000
    15  H    0.018149   0.000000
    16  H    0.025317  -0.000000
    17  H    0.002029  -0.000000
    18  H    0.009734   0.000000
    19  H    0.010097  -0.000000
    20  H    0.012409  -0.000000
    21  H    0.008681  -0.000000
 Sum of Mulliken charges =  -0.00000  -0.00000

 Dipole moment (field-independent basis, Debye):
    X=             -0.9991    Y=              1.4479    Z=             -0.3019  Tot=              1.7849
 Quadrupole moment (field-independent basis, Debye-Ang):
   XX=            -55.4309   YY=            -62.7910   ZZ=            -73.7098
   XY=             -1.1096   XZ=              0.2388   YZ=              0.5891

 Normal termination of Gaussian 16 at Thu Jul 23 16:00:58 2020.
