 Gaussian 16, Revision A.03,
 Gaussian 16:  EM64L-G16RevA.03 25-Dec-2016

 ---------------------------------------------------------------
 #P uLC-wPBE/cc-pVDZ iop(3/107=0194600000, 3/108=0194600000) opt
 ---------------------------------------------------------------

 ----------------
 H17 C24 S6 N3 O3
 ----------------
 Symbolic Z-matrix:
 Charge =  0 Multiplicity = 1

 SCF Done:  E(ULC-wPBE) =  -3701.84864718     A.U. after   16 cycles
 SCF Done:  E(ULC-wPBE) =  -3701.90462161     A.U. after   14 cycles
 SCF Done:  E(ULC-wPBE) =  -3701.94110685     A.U. after   15 cycles
 SCF Done:  E(ULC-wPBE) =  -3701.94438139     A.U. after   14 cycles
 SCF Done:  E(ULC-wPBE) =  -3701.94606585     A.U. after   14 cycles
 SCF Done:  E(ULC-wPBE) =  -3701.94648444     A.U. after   14 cycles
 SCF Done:  E(ULC-wPBE) =  -3701.94683501     A.U. after   12 cycles
 SCF Done:  E(ULC-wPBE) =  -3701.94688326     A.U. after   12 cycles
 SCF Done:  E(ULC-wPBE) =  -3701.94691471     A.U. after   11 cycles
 SCF Done:  E(ULC-wPBE) =  -3701.94692243     A.U. after   11 cycles
 SCF Done:  E(ULC-wPBE) =  -3701.94698507     A.U. after   12 cycles
 SCF Done:  E(ULC-wPBE) =  -3701.94702965     A.U. after   12 cycles
 SCF Done:  E(ULC-wPBE) =  -3701.94704143     A.U. after   13 cycles
 SCF Done:  E(ULC-wPBE) =  -3701.94704249     A.U. after   11 cycles
 SCF Done:  E(ULC-wPBE) =  -3701.94704027     A.U. after   11 cycles
 SCF Done:  E(ULC-wPBE) =  -3701.94704415     A.U. after   12 cycles
 SCF Done:  E(ULC-wPBE) =  -3701.94704441     A.U. after   10 cycles
 SCF Done:  E(ULC-wPBE) =  -3701.94704477     A.U. after   10 cycles
 SCF Done:  E(ULC-wPBE) =  -3701.94704464     A.U. after   10 cycles
 SCF Done:  E(ULC-wPBE) =  -3701.94704488     A.U. after   10 cycles
 Optimization completed.
    -- Stationary point found.

                         Standard orientation:
 ---------------------------------------------------------------------
 Center     Atomic      Atomic             Coordinates (Angstroms)
 Number     Number       Type             X           Y           Z
 ---------------------------------------------------------------------
      1          6           0       10.552870    1.774292    0.484285
      2          6           0        9.523449    2.573684    0.914387
      3          7           0        8.260620    2.048548    0.801245
      4          6           0        8.306426    0.837542    0.281744
      5         16           0        9.927733    0.269626   -0.101625
      6          6           0        7.120027    0.039599    0.047126
      7          6           0        7.001906   -1.237908   -0.491482
      8          8           0        8.122832   -1.904526   -0.877373
      9          6           0        7.940582   -3.204038   -1.430598
     10          6           0        5.652991   -1.690589   -0.583056
     11          6           0        4.751555   -0.754933   -0.101087
     12         16           0        5.555471    0.681008    0.466049
     13          6           0        3.303708   -0.896095   -0.022691
     14          6           0        2.564779   -2.058690    0.094184
     15          7           0        1.206053   -1.924805    0.134964
     16          6           0        0.859634   -0.652818    0.059804
     17         16           0        2.209752    0.465342   -0.082980
     18          6           0       -0.517078   -0.211776    0.089000
     19          6           0       -1.033487    1.079286    0.023531
     20          8           0       -0.180686    2.131075   -0.087306
     21          6           0       -0.760399    3.431941   -0.129674
     22          6           0       -2.456359    1.121842    0.092612
     23          6           0       -3.015275   -0.140984    0.208559
     24         16           0       -1.798589   -1.386704    0.215867
     25          6           0       -4.424119   -0.490023    0.316318
     26          6           0       -5.000761   -1.637081    0.828607
     27          7           0       -6.365256   -1.702926    0.809293
     28          6           0       -6.879354   -0.606729    0.285604
     29         16           0       -5.690615    0.581930   -0.232527
     30          6           0       -8.305169   -0.395597    0.146214
     31          6           0       -8.989103    0.693381   -0.386490
     32          8           0       -8.285982    1.754566   -0.865259
     33          6           0       -9.040163    2.835494   -1.405361
     34          6           0      -10.409961    0.534730   -0.353988
     35          6           0      -10.771525   -0.671395    0.202522
     36         16           0       -9.418877   -1.621005    0.689318
     37          1           0       11.626136    1.983675    0.479874
     38          1           0        9.647070    3.579889    1.332060
     39          1           0        7.459761   -3.890175   -0.703082
     40          1           0        7.334070   -3.167994   -2.359090
     41          1           0        8.950425   -3.576989   -1.670042
     42          1           0        5.340565   -2.647864   -1.010177
     43          1           0        3.006369   -3.058933    0.177051
     44          1           0       -1.327022    3.652021    0.798404
     45          1           0        0.082673    4.137097   -0.218184
     46          1           0       -1.429206    3.547533   -1.007327
     47          1           0       -3.056158    2.037032    0.082102
     48          1           0       -4.430852   -2.471780    1.255137
     49          1           0       -8.302646    3.584429   -1.739012
     50          1           0       -9.649292    2.509933   -2.273701
     51          1           0       -9.702394    3.289655   -0.639641
     52          1           0      -11.132243    1.269679   -0.721404
     53          1           0      -11.785541   -1.053798    0.351971
 ---------------------------------------------------------------------

 The electronic state is 1-A.
 Alpha  occ. eigenvalues --  -88.21669 -88.21596 -88.21355 -88.21216 -88.21006
 Alpha  occ. eigenvalues --  -88.20651 -18.92871 -18.92541 -18.92130 -14.10707
 Alpha  occ. eigenvalues --  -14.10389 -14.09722 -10.08269 -10.08103 -10.08050
 Alpha  occ. eigenvalues --  -10.07852 -10.07709 -10.07597 -10.07430 -10.07161
 Alpha  occ. eigenvalues --  -10.07063 -10.06028 -10.05571 -10.05046 -10.04896
 Alpha  occ. eigenvalues --  -10.04697 -10.04489 -10.04218 -10.03969 -10.03808
 Alpha  occ. eigenvalues --  -10.03680 -10.02954 -10.02872 -10.02705 -10.02348
 Alpha  occ. eigenvalues --  -10.01956  -7.81988  -7.81954  -7.81673  -7.81568
 Alpha  occ. eigenvalues --   -7.81322  -7.81007  -5.84015  -5.83965  -5.83719
 Alpha  occ. eigenvalues --   -5.83578  -5.83544  -5.83517  -5.83362  -5.83251
 Alpha  occ. eigenvalues --   -5.83138  -5.83129  -5.83112  -5.83002  -5.82897
 Alpha  occ. eigenvalues --   -5.82783  -5.82730  -5.82553  -5.82441  -5.82197
 Alpha  occ. eigenvalues --   -1.11050  -1.10753  -1.10338  -0.99729  -0.99370
 Alpha  occ. eigenvalues --   -0.98601  -0.93178  -0.92792  -0.92542  -0.85656
 Alpha  occ. eigenvalues --   -0.85077  -0.83160  -0.82861  -0.81958  -0.80750
 Alpha  occ. eigenvalues --   -0.80233  -0.79925  -0.79443  -0.77486  -0.76979
 Alpha  occ. eigenvalues --   -0.75852  -0.74560  -0.73360  -0.72295  -0.68406
 Alpha  occ. eigenvalues --   -0.67016  -0.65979  -0.64481  -0.63717  -0.62387
 Alpha  occ. eigenvalues --   -0.61860  -0.61143  -0.60636  -0.59932  -0.59521
 Alpha  occ. eigenvalues --   -0.59021  -0.57627  -0.56163  -0.55382  -0.53706
 Alpha  occ. eigenvalues --   -0.53482  -0.53363  -0.53342  -0.53053  -0.52966
 Alpha  occ. eigenvalues --   -0.52325  -0.51406  -0.50607  -0.50225  -0.49595
 Alpha  occ. eigenvalues --   -0.49168  -0.48703  -0.48550  -0.48174  -0.47775
 Alpha  occ. eigenvalues --   -0.47191  -0.46448  -0.46177  -0.45950  -0.45520
 Alpha  occ. eigenvalues --   -0.45089  -0.44448  -0.44191  -0.43844  -0.42884
 Alpha  occ. eigenvalues --   -0.42367  -0.41714  -0.41304  -0.40918  -0.40682
 Alpha  occ. eigenvalues --   -0.40234  -0.39840  -0.39676  -0.39239  -0.39162
 Alpha  occ. eigenvalues --   -0.38801  -0.36816  -0.35386  -0.33979  -0.33697
 Alpha  occ. eigenvalues --   -0.33408  -0.32972  -0.32705  -0.32484  -0.32065
 Alpha  occ. eigenvalues --   -0.30712  -0.30397  -0.29990  -0.28213  -0.25832
 Alpha  occ. eigenvalues --   -0.23614
 Alpha virt. eigenvalues --   -0.02810  -0.00590   0.01673   0.04595   0.06199
 Alpha virt. eigenvalues --    0.06859   0.07336   0.07826   0.08397   0.08764
 Alpha virt. eigenvalues --    0.09521   0.09802   0.10866   0.11001   0.11465

  Beta  occ. eigenvalues --  -88.21669 -88.21596 -88.21355 -88.21216 -88.21006
  Beta  occ. eigenvalues --  -88.20651 -18.92871 -18.92541 -18.92130 -14.10707
  Beta  occ. eigenvalues --  -14.10389 -14.09722 -10.08269 -10.08103 -10.08050
  Beta  occ. eigenvalues --  -10.07852 -10.07709 -10.07597 -10.07430 -10.07161
  Beta  occ. eigenvalues --  -10.07063 -10.06028 -10.05571 -10.05046 -10.04896
  Beta  occ. eigenvalues --  -10.04697 -10.04489 -10.04218 -10.03969 -10.03808
  Beta  occ. eigenvalues --  -10.03680 -10.02954 -10.02872 -10.02705 -10.02348
  Beta  occ. eigenvalues --  -10.01956  -7.81988  -7.81954  -7.81673  -7.81568
  Beta  occ. eigenvalues --   -7.81322  -7.81007  -5.84015  -5.83965  -5.83719
  Beta  occ. eigenvalues --   -5.83578  -5.83544  -5.83517  -5.83362  -5.83251
  Beta  occ. eigenvalues --   -5.83138  -5.83129  -5.83112  -5.83002  -5.82897
  Beta  occ. eigenvalues --   -5.82783  -5.82730  -5.82553  -5.82441  -5.82197
  Beta  occ. eigenvalues --   -1.11050  -1.10753  -1.10338  -0.99729  -0.99370
  Beta  occ. eigenvalues --   -0.98601  -0.93178  -0.92792  -0.92542  -0.85656
  Beta  occ. eigenvalues --   -0.85077  -0.83160  -0.82861  -0.81958  -0.80750
  Beta  occ. eigenvalues --   -0.80233  -0.79925  -0.79443  -0.77486  -0.76979
  Beta  occ. eigenvalues --   -0.75852  -0.74560  -0.73360  -0.72295  -0.68406
  Beta  occ. eigenvalues --   -0.67016  -0.65979  -0.64481  -0.63717  -0.62387
  Beta  occ. eigenvalues --   -0.61860  -0.61143  -0.60636  -0.59932  -0.59521
  Beta  occ. eigenvalues --   -0.59021  -0.57627  -0.56163  -0.55382  -0.53706
  Beta  occ. eigenvalues --   -0.53482  -0.53363  -0.53342  -0.53053  -0.52966
  Beta  occ. eigenvalues --   -0.52325  -0.51406  -0.50607  -0.50225  -0.49595
  Beta  occ. eigenvalues --   -0.49168  -0.48703  -0.48550  -0.48174  -0.47775
  Beta  occ. eigenvalues --   -0.47191  -0.46448  -0.46177  -0.45950  -0.45520
  Beta  occ. eigenvalues --   -0.45089  -0.44448  -0.44191  -0.43844  -0.42884
  Beta  occ. eigenvalues --   -0.42367  -0.41714  -0.41304  -0.40918  -0.40682
  Beta  occ. eigenvalues --   -0.40234  -0.39840  -0.39676  -0.39239  -0.39162
  Beta  occ. eigenvalues --   -0.38801  -0.36816  -0.35386  -0.33979  -0.33697
  Beta  occ. eigenvalues --   -0.33408  -0.32972  -0.32705  -0.32484  -0.32065
  Beta  occ. eigenvalues --   -0.30712  -0.30397  -0.29990  -0.28213  -0.25832
  Beta  occ. eigenvalues --   -0.23614
  Beta virt. eigenvalues --   -0.02810  -0.00590   0.01673   0.04595   0.06199
  Beta virt. eigenvalues --    0.06859   0.07336   0.07826   0.08397   0.08764
  Beta virt. eigenvalues --    0.09521   0.09802   0.10866   0.11001   0.11465

 Mulliken charges and spin densities:
               1          2
     1  C   -0.173969  -0.000000
     2  C    0.126353   0.000000
     3  N   -0.204826   0.000000
     4  C    0.019896   0.000000
     5  S    0.154458   0.000000
     6  C   -0.154489  -0.000000
     7  C    0.138696   0.000000
     8  O   -0.246189  -0.000000
     9  C    0.061731   0.000000
    10  C    0.011420  -0.000000
    11  C   -0.124504  -0.000000
    12  S    0.207247  -0.000000
    13  C   -0.177426   0.000000
    14  C    0.133099  -0.000000
    15  N   -0.201776  -0.000000
    16  C    0.043883   0.000000
    17  S    0.167452  -0.000000
    18  C   -0.164531   0.000000
    19  C    0.137133  -0.000000
    20  O   -0.245034   0.000000
    21  C    0.061177  -0.000000
    22  C    0.013637   0.000000
    23  C   -0.118654   0.000000
    24  S    0.205555  -0.000000
    25  C   -0.178353  -0.000000
    26  C    0.132624  -0.000000
    27  N   -0.199646  -0.000000
    28  C    0.060229   0.000000
    29  S    0.150857   0.000000
    30  C   -0.181574  -0.000000
    31  C    0.123628  -0.000000
    32  O   -0.245249  -0.000000
    33  C    0.060307   0.000000
    34  C    0.032465  -0.000000
    35  C   -0.121801   0.000000
    36  S    0.210129   0.000000
    37  H    0.020765   0.000000
    38  H   -0.002529  -0.000000
    39  H    0.047658  -0.000000
    40  H    0.049085  -0.000000
    41  H    0.055174  -0.000000
    42  H   -0.012900   0.000000
    43  H   -0.002501  -0.000000
    44  H    0.049980   0.000000
    45  H    0.058616  -0.000000
    46  H    0.048225   0.000000
    47  H   -0.008438   0.000000
    48  H    0.009160   0.000000
    49  H    0.055464  -0.000000
    50  H    0.049322  -0.000000
    51  H    0.048730  -0.000000
    52  H   -0.005328  -0.000000
    53  H    0.025565  -0.000000
 Sum of Mulliken charges =  -0.00000   0.00000

 Dipole moment (field-independent basis, Debye):
    X=             -3.6792    Y=              2.7702    Z=             -2.6292  Tot=              5.3031
 Quadrupole moment (field-independent basis, Debye-Ang):
   XX=           -176.1521   YY=           -220.3754   ZZ=           -250.5402
   XY=            -44.6610   XZ=              2.4242   YZ=              0.6243

 Normal termination of Gaussian 16 at Sat Jul 25 06:28:12 2020.
