 Gaussian 16, Revision A.03,
 Gaussian 16:  EM64L-G16RevA.03 25-Dec-2016

 ---------------------------------------------------------------
 #P uLC-wPBE/cc-pVDZ iop(3/107=0432700000, 3/108=0432700000) opt
 ---------------------------------------------------------------

 --------------
 H52 C60 S5 O10
 --------------
 Symbolic Z-matrix:
 Charge =  0 Multiplicity = 1

 SCF Done:  E(ULC-wPBE) =  -5058.07870467     A.U. after   18 cycles
 SCF Done:  E(ULC-wPBE) =  -5058.16443177     A.U. after   14 cycles
 SCF Done:  E(ULC-wPBE) =  -5058.24198482     A.U. after   16 cycles
 SCF Done:  E(ULC-wPBE) =  -5058.26331298     A.U. after   14 cycles
 SCF Done:  E(ULC-wPBE) =  -5058.27216372     A.U. after   16 cycles
 SCF Done:  E(ULC-wPBE) =  -5058.27905001     A.U. after   16 cycles
 SCF Done:  E(ULC-wPBE) =  -5058.28233394     A.U. after   18 cycles
 SCF Done:  E(ULC-wPBE) =  -5058.28859644     A.U. after   14 cycles
 SCF Done:  E(ULC-wPBE) =  -5058.29137087     A.U. after   13 cycles
 SCF Done:  E(ULC-wPBE) =  -5058.29187498     A.U. after   16 cycles
 SCF Done:  E(ULC-wPBE) =  -5058.29487664     A.U. after   11 cycles
 SCF Done:  E(ULC-wPBE) =  -5058.29488053     A.U. after   11 cycles
 SCF Done:  E(ULC-wPBE) =  -5058.29488175     A.U. after   11 cycles
 SCF Done:  E(ULC-wPBE) =  -5058.29488351     A.U. after   11 cycles
 SCF Done:  E(ULC-wPBE) =  -5058.29488421     A.U. after   10 cycles
 SCF Done:  E(ULC-wPBE) =  -5058.29488426     A.U. after    7 cycles
 SCF Done:  E(ULC-wPBE) =  -5058.29488433     A.U. after    7 cycles
 SCF Done:  E(ULC-wPBE) =  -5058.29488435     A.U. after    6 cycles
 SCF Done:  E(ULC-wPBE) =  -5058.29488431     A.U. after    6 cycles
 SCF Done:  E(ULC-wPBE) =  -5058.29488443     A.U. after    7 cycles
 Optimization completed.
    -- Stationary point found.

                         Standard orientation:
 ---------------------------------------------------------------------
 Center     Atomic      Atomic             Coordinates (Angstroms)
 Number     Number       Type             X           Y           Z
 ---------------------------------------------------------------------
      1          6           0      -18.671682   -1.869662    1.059278
      2          6           0      -18.122535   -2.608498    0.026117
      3          6           0      -16.740106   -2.606947   -0.151849
      4          8           0      -16.124412   -3.302276   -1.132115
      5          6           0      -16.916707   -4.007632   -2.053414
      6          6           0      -15.905643   -1.866216    0.698529
      7          6           0      -16.498419   -1.130616    1.734160
      8          8           0      -15.646096   -0.440134    2.521591
      9          6           0      -16.172410    0.323601    3.576788
     10          6           0      -17.878970   -1.129395    1.918870
     11          6           0      -14.442474   -1.871216    0.501875
     12          6           0      -13.626592   -2.950898    0.332644
     13          6           0      -12.270211   -2.600274    0.108306
     14          6           0      -12.062001   -1.251489    0.097718
     15         16           0      -13.537162   -0.409782    0.371809
     16          6           0      -10.792130   -0.532473   -0.094020
     17          6           0      -10.558885    0.679796    0.545812
     18          6           0       -9.352782    1.348073    0.358666
     19          8           0       -9.075876    2.527797    0.954761
     20          6           0      -10.020562    3.072578    1.841223
     21          6           0       -8.346794    0.816557   -0.462519
     22          6           0       -8.606488   -0.408448   -1.093878
     23          8           0       -7.615493   -0.880307   -1.880870
     24          6           0       -7.800354   -2.106885   -2.540357
     25          6           0       -9.813931   -1.074910   -0.920910
     26          6           0       -7.069798    1.530027   -0.651576
     27          6           0       -6.883844    2.863190   -0.878555
     28          6           0       -5.517723    3.237074   -0.949918
     29          6           0       -4.666012    2.186535   -0.765900
     30         16           0       -5.546751    0.730653   -0.515160
     31          6           0       -3.194557    2.199533   -0.786175
     32          6           0       -2.511744    3.326531   -0.340981
     33          6           0       -1.121429    3.358620   -0.372488
     34          8           0       -0.409403    4.427834    0.045612
     35          6           0       -1.097582    5.522491    0.595232
     36          6           0       -0.377979    2.261409   -0.835172
     37          6           0       -1.090460    1.134437   -1.268474
     38          8           0       -0.339253    0.101373   -1.706801
     39          6           0       -0.984887   -1.070234   -2.136824
     40          6           0       -2.480212    1.100667   -1.251154
     41          6           0        1.096208    2.302797   -0.857994
     42          6           0        1.896004    3.329609   -1.270053
     43          6           0        3.279582    3.069183   -1.100137
     44          6           0        3.529050    1.846086   -0.548161
     45         16           0        2.058239    1.007072   -0.246891
     46          6           0        4.834986    1.240558   -0.242077
     47          6           0        5.896981    2.054451    0.138444
     48          6           0        7.137221    1.490695    0.413840
     49          8           0        8.208394    2.224061    0.786965
     50          6           0        8.073710    3.618978    0.882965
     51          6           0        7.349953    0.106937    0.331476
     52          6           0        6.260808   -0.693843   -0.044642
     53          8           0        6.493072   -2.022416   -0.116920
     54          6           0        5.456324   -2.864328   -0.553900
     55          6           0        5.019821   -0.134603   -0.333418
     56          6           0        8.663098   -0.494301    0.631100
     57          6           0        8.920536   -1.612719    1.370227
     58          6           0       10.295646   -1.957705    1.409715
     59          6           0       11.081357   -1.104826    0.690029
     60         16           0       10.128582    0.132996   -0.029808
     61          6           0       12.542628   -1.146436    0.518331
     62          6           0       13.196610   -2.373940    0.495945
     63          6           0       14.578474   -2.419251    0.349944
     64          8           0       15.275300   -3.575680    0.320457
     65          6           0       14.582314   -4.787819    0.472348
     66          6           0       15.340172   -1.250620    0.210503
     67          6           0       14.657196   -0.025777    0.225906
     68          8           0       15.417155    1.082614    0.089629
     69          6           0       14.792576    2.339042    0.159285
     70          6           0       13.275452    0.027633    0.383231
     71          6           0       16.806397   -1.297524    0.048220
     72          6           0       17.567238   -0.615829   -0.856386
     73          6           0       18.962481   -0.843879   -0.704598
     74          6           0       19.237498   -1.687956    0.324277
     75         16           0       17.813768   -2.223955    1.100470
     76          1           0      -19.752687   -1.871776    1.199685
     77          1           0      -18.770766   -3.179648   -0.632635
     78          1           0      -16.221927   -4.459604   -2.767857
     79          1           0      -17.497625   -4.804652   -1.565351
     80          1           0      -17.602422   -3.338756   -2.594522
     81          1           0      -16.850043    1.109450    3.210906
     82          1           0      -15.315021    0.791688    4.069758
     83          1           0      -16.705327   -0.305250    4.305464
     84          1           0      -18.336533   -0.561267    2.724022
     85          1           0      -13.994705   -3.972937    0.363756
     86          1           0      -11.468300   -3.326075   -0.010951
     87          1           0      -11.319484    1.084864    1.207647
     88          1           0      -10.968537    3.305537    1.333641
     89          1           0       -9.580617    4.000120    2.220083
     90          1           0      -10.218838    2.397872    2.687169
     91          1           0       -6.877559   -2.293208   -3.097986
     92          1           0       -7.963466   -2.929831   -1.828563
     93          1           0       -8.643301   -2.064395   -3.245917
     94          1           0      -10.018374   -2.002791   -1.446799
     95          1           0       -7.711311    3.558753   -0.986109
     96          1           0       -5.177009    4.248434   -1.162389
     97          1           0       -3.078014    4.164908    0.053576
     98          1           0       -1.678503    5.232172    1.483141
     99          1           0       -1.768823    5.992462   -0.139211
    100          1           0       -0.330832    6.245026    0.891049
    101          1           0       -1.626802   -0.881383   -3.010032
    102          1           0       -0.190389   -1.766450   -2.421961
    103          1           0       -1.587519   -1.519500   -1.333555
    104          1           0       -3.019071    0.232412   -1.620544
    105          1           0        1.496850    4.252791   -1.680439
    106          1           0        4.066998    3.754844   -1.406627
    107          1           0        5.734903    3.123013    0.244447
    108          1           0        7.791246    4.066861   -0.081483
    109          1           0        9.056001    3.998523    1.180142
    110          1           0        7.333681    3.903010    1.645807
    111          1           0        5.125428   -2.605868   -1.570717
    112          1           0        5.870906   -3.877033   -0.560141
    113          1           0        4.592396   -2.833842    0.126779
    114          1           0        4.191153   -0.760558   -0.652905
    115          1           0        8.137408   -2.176541    1.869114
    116          1           0       10.694170   -2.794562    1.979751
    117          1           0       12.613139   -3.287419    0.563612
    118          1           0       15.340233   -5.576274    0.438517
    119          1           0       14.055517   -4.836087    1.437135
    120          1           0       13.861185   -4.947587   -0.343078
    121          1           0       14.292944    2.490905    1.127653
    122          1           0       15.590069    3.080278    0.049189
    123          1           0       14.060474    2.475893   -0.650715
    124          1           0       12.758773    0.982641    0.424286
    125          1           0       17.134367    0.043114   -1.604185
    126          1           0       19.725679   -0.396405   -1.337964
    127          1           0       20.209836   -2.040191    0.658257
 ---------------------------------------------------------------------

 Alpha  occ. eigenvalues --   -0.92154  -0.91950  -0.91756  -0.91555  -0.91180
 Alpha  occ. eigenvalues --   -0.89191  -0.88998  -0.88716  -0.88498  -0.88242
 Alpha  occ. eigenvalues --   -0.88111  -0.87411  -0.87320  -0.86803  -0.86728
 Alpha  occ. eigenvalues --   -0.86372  -0.86195  -0.86152  -0.85908  -0.85553
 Alpha  occ. eigenvalues --   -0.84854  -0.84385  -0.83799  -0.82878  -0.81757
 Alpha  occ. eigenvalues --   -0.79067  -0.77794  -0.76595  -0.75774  -0.75230
 Alpha  occ. eigenvalues --   -0.73487  -0.73423  -0.73256  -0.73043  -0.72753
 Alpha  occ. eigenvalues --   -0.70475  -0.70295  -0.69980  -0.69899  -0.69579
 Alpha  occ. eigenvalues --   -0.69139  -0.68786  -0.68645  -0.68118  -0.67767
 Alpha  occ. eigenvalues --   -0.67373  -0.66326  -0.65961  -0.65739  -0.65227
 Alpha  occ. eigenvalues --   -0.64762  -0.64526  -0.64229  -0.64085  -0.63773
 Alpha  occ. eigenvalues --   -0.63492  -0.63368  -0.62997  -0.62886  -0.62860
 Alpha  occ. eigenvalues --   -0.62609  -0.62488  -0.62395  -0.62197  -0.61943
 Alpha  occ. eigenvalues --   -0.61869  -0.61693  -0.61505  -0.61292  -0.61284
 Alpha  occ. eigenvalues --   -0.61028  -0.61007  -0.60828  -0.60626  -0.60272
 Alpha  occ. eigenvalues --   -0.60227  -0.59299  -0.58624  -0.58189  -0.57965
 Alpha  occ. eigenvalues --   -0.57501  -0.57459  -0.57146  -0.56679  -0.55986
 Alpha  occ. eigenvalues --   -0.54516  -0.54254  -0.54074  -0.53941  -0.53871
 Alpha  occ. eigenvalues --   -0.53800  -0.53675  -0.53571  -0.53513  -0.53224
 Alpha  occ. eigenvalues --   -0.53131  -0.52596  -0.52464  -0.52108  -0.51933
 Alpha  occ. eigenvalues --   -0.51850  -0.51594  -0.51528  -0.51415  -0.51286
 Alpha  occ. eigenvalues --   -0.51074  -0.50954  -0.50849  -0.50565  -0.50384
 Alpha  occ. eigenvalues --   -0.50154  -0.49854  -0.49776  -0.49574  -0.49531
 Alpha  occ. eigenvalues --   -0.49169  -0.48983  -0.48769  -0.48509  -0.48241
 Alpha  occ. eigenvalues --   -0.47805  -0.47615  -0.47345  -0.47149  -0.46952
 Alpha  occ. eigenvalues --   -0.46686  -0.46560  -0.46422  -0.46255  -0.46024
 Alpha  occ. eigenvalues --   -0.45635  -0.45142  -0.44943  -0.44692  -0.44604
 Alpha  occ. eigenvalues --   -0.44428  -0.44359  -0.44107  -0.43995  -0.43813
 Alpha  occ. eigenvalues --   -0.43656  -0.43563  -0.43344  -0.43119  -0.42950
 Alpha  occ. eigenvalues --   -0.42592  -0.37805  -0.37226  -0.36489  -0.35565
 Alpha  occ. eigenvalues --   -0.35020  -0.34771  -0.34599  -0.34401  -0.34233
 Alpha  occ. eigenvalues --   -0.33735  -0.32850  -0.32636  -0.32477  -0.32426
 Alpha  occ. eigenvalues --   -0.32235  -0.31870  -0.31115  -0.29646  -0.28322
 Alpha  occ. eigenvalues --   -0.27329
 Alpha virt. eigenvalues --    0.01965   0.03022   0.04424   0.05998   0.07450
 Alpha virt. eigenvalues --    0.09318   0.09882   0.10022   0.10175   0.10408
 Alpha virt. eigenvalues --    0.10539   0.10770   0.11721   0.12681   0.13435

  Beta  occ. eigenvalues --  -88.32652 -88.32381 -88.32191 -88.31940 -88.31406
  Beta  occ. eigenvalues --  -19.03361 -19.03273 -19.03135 -19.03014 -19.02920
  Beta  occ. eigenvalues --  -19.02856 -19.02744 -19.02626 -19.02310 -19.02244
  Beta  occ. eigenvalues --  -10.20981 -10.20948 -10.20721 -10.20691 -10.20533
  Beta  occ. eigenvalues --  -10.20480 -10.20315 -10.20286 -10.19926 -10.19887
  Beta  occ. eigenvalues --  -10.19597 -10.19558 -10.19347 -10.19240 -10.19132
  Beta  occ. eigenvalues --  -10.19099 -10.18979 -10.18875 -10.18571 -10.18552
  Beta  occ. eigenvalues --  -10.16671 -10.16538 -10.16443 -10.16313 -10.16260
  Beta  occ. eigenvalues --  -10.16257 -10.16098 -10.16066 -10.16005 -10.15898
  Beta  occ. eigenvalues --  -10.15810 -10.15556 -10.15415 -10.15213 -10.14902
  Beta  occ. eigenvalues --  -10.14593 -10.14548 -10.14401 -10.14188 -10.13764
  Beta  occ. eigenvalues --  -10.13604 -10.13590 -10.13455 -10.13211 -10.13196
  Beta  occ. eigenvalues --  -10.13191 -10.13184 -10.12994 -10.12992 -10.12986
  Beta  occ. eigenvalues --  -10.12889 -10.12804 -10.12782 -10.12725 -10.12701
  Beta  occ. eigenvalues --  -10.12462 -10.12462 -10.12449 -10.12263 -10.11929
  Beta  occ. eigenvalues --   -7.93490  -7.93212  -7.93020  -7.92771  -7.92254
  Beta  occ. eigenvalues --   -5.94873  -5.94596  -5.94405  -5.94330  -5.94155
  Beta  occ. eigenvalues --   -5.94052  -5.93933  -5.93860  -5.93656  -5.93631
  Beta  occ. eigenvalues --   -5.93610  -5.93464  -5.93214  -5.93084  -5.92713
  Beta  occ. eigenvalues --   -1.23388  -1.23144  -1.23101  -1.22944  -1.22841
  Beta  occ. eigenvalues --   -1.22753  -1.22661  -1.22451  -1.22350  -1.22065
  Beta  occ. eigenvalues --   -1.06008  -1.05704  -1.05462  -1.05167  -1.04007
  Beta  occ. eigenvalues --   -1.03177  -1.02677  -1.02193  -1.01728  -1.01218
  Beta  occ. eigenvalues --   -0.96650  -0.95862  -0.94900  -0.93928  -0.93344
  Beta  occ. eigenvalues --   -0.92154  -0.91950  -0.91756  -0.91555  -0.91180
  Beta  occ. eigenvalues --   -0.89191  -0.88998  -0.88716  -0.88498  -0.88242
  Beta  occ. eigenvalues --   -0.88111  -0.87411  -0.87320  -0.86803  -0.86728
  Beta  occ. eigenvalues --   -0.86372  -0.86195  -0.86152  -0.85908  -0.85553
  Beta  occ. eigenvalues --   -0.84854  -0.84385  -0.83799  -0.82878  -0.81757
  Beta  occ. eigenvalues --   -0.79067  -0.77794  -0.76595  -0.75774  -0.75230
  Beta  occ. eigenvalues --   -0.73487  -0.73423  -0.73256  -0.73043  -0.72753
  Beta  occ. eigenvalues --   -0.70475  -0.70295  -0.69980  -0.69899  -0.69579
  Beta  occ. eigenvalues --   -0.69139  -0.68786  -0.68645  -0.68118  -0.67767
  Beta  occ. eigenvalues --   -0.67373  -0.66326  -0.65961  -0.65739  -0.65227
  Beta  occ. eigenvalues --   -0.64762  -0.64526  -0.64229  -0.64085  -0.63773
  Beta  occ. eigenvalues --   -0.63492  -0.63368  -0.62997  -0.62886  -0.62860
  Beta  occ. eigenvalues --   -0.62609  -0.62488  -0.62395  -0.62197  -0.61943
  Beta  occ. eigenvalues --   -0.61869  -0.61693  -0.61505  -0.61292  -0.61284
  Beta  occ. eigenvalues --   -0.61028  -0.61007  -0.60828  -0.60626  -0.60272
  Beta  occ. eigenvalues --   -0.60227  -0.59299  -0.58624  -0.58189  -0.57965
  Beta  occ. eigenvalues --   -0.57501  -0.57459  -0.57146  -0.56679  -0.55986
  Beta  occ. eigenvalues --   -0.54516  -0.54254  -0.54074  -0.53941  -0.53871
  Beta  occ. eigenvalues --   -0.53800  -0.53675  -0.53571  -0.53513  -0.53224
  Beta  occ. eigenvalues --   -0.53131  -0.52596  -0.52464  -0.52108  -0.51933
  Beta  occ. eigenvalues --   -0.51850  -0.51594  -0.51528  -0.51415  -0.51286
  Beta  occ. eigenvalues --   -0.51074  -0.50954  -0.50849  -0.50565  -0.50384
  Beta  occ. eigenvalues --   -0.50154  -0.49854  -0.49776  -0.49574  -0.49531
  Beta  occ. eigenvalues --   -0.49169  -0.48983  -0.48769  -0.48509  -0.48241
  Beta  occ. eigenvalues --   -0.47805  -0.47615  -0.47345  -0.47149  -0.46952
  Beta  occ. eigenvalues --   -0.46686  -0.46560  -0.46422  -0.46255  -0.46024
  Beta  occ. eigenvalues --   -0.45635  -0.45142  -0.44943  -0.44692  -0.44604
  Beta  occ. eigenvalues --   -0.44428  -0.44359  -0.44107  -0.43995  -0.43813
  Beta  occ. eigenvalues --   -0.43656  -0.43563  -0.43344  -0.43119  -0.42950
  Beta  occ. eigenvalues --   -0.42592  -0.37805  -0.37226  -0.36489  -0.35565
  Beta  occ. eigenvalues --   -0.35020  -0.34771  -0.34599  -0.34401  -0.34233
  Beta  occ. eigenvalues --   -0.33735  -0.32850  -0.32636  -0.32477  -0.32426
  Beta  occ. eigenvalues --   -0.32235  -0.31870  -0.31115  -0.29646  -0.28322
  Beta  occ. eigenvalues --   -0.27329
  Beta virt. eigenvalues --    0.01965   0.03022   0.04424   0.05998   0.07450
  Beta virt. eigenvalues --    0.09318   0.09882   0.10022   0.10175   0.10408
  Beta virt. eigenvalues --    0.10539   0.10770   0.11721   0.12681   0.13435

 Mulliken charges and spin densities:
               1          2
     1  C    0.015219  -0.000000
     2  C   -0.070855   0.000000
     3  C    0.121947  -0.000000
     4  O   -0.248798  -0.000000
     5  C    0.038504  -0.000000
     6  C   -0.060963   0.000000
     7  C    0.132893  -0.000000
     8  O   -0.249503   0.000000
     9  C    0.039601  -0.000000
    10  C   -0.069196   0.000000
    11  C   -0.125064  -0.000000
    12  C    0.056177  -0.000000
    13  C    0.001272   0.000000
    14  C   -0.167971   0.000000
    15  S    0.179148   0.000000
    16  C    0.044724  -0.000000
    17  C   -0.067912   0.000000
    18  C    0.126602   0.000000
    19  O   -0.253745  -0.000000
    20  C    0.040339  -0.000000
    21  C   -0.041764  -0.000000
    22  C    0.141832   0.000000
    23  O   -0.253954  -0.000000
    24  C    0.042939   0.000000
    25  C   -0.068980   0.000000
    26  C   -0.128870  -0.000000
    27  C    0.051523  -0.000000
    28  C    0.002373   0.000000
    29  C   -0.167793  -0.000000
    30  S    0.178268   0.000000
    31  C    0.044388   0.000000
    32  C   -0.070148   0.000000
    33  C    0.129535  -0.000000
    34  O   -0.254086   0.000000
    35  C    0.041998  -0.000000
    36  C   -0.040611   0.000000
    37  C    0.138118  -0.000000
    38  O   -0.254566   0.000000
    39  C    0.041605   0.000000
    40  C   -0.066316  -0.000000
    41  C   -0.128871  -0.000000
    42  C    0.050857  -0.000000
    43  C    0.003063   0.000000
    44  C   -0.168224  -0.000000
    45  S    0.178104  -0.000000
    46  C    0.044631  -0.000000
    47  C   -0.069187   0.000000
    48  C    0.141539   0.000000
    49  O   -0.253953   0.000000
    50  C    0.043127  -0.000000
    51  C   -0.041172   0.000000
    52  C    0.126319  -0.000000
    53  O   -0.253888   0.000000
    54  C    0.040485  -0.000000
    55  C   -0.068047   0.000000
    56  C   -0.129104  -0.000000
    57  C    0.050866  -0.000000
    58  C    0.003019   0.000000
    59  C   -0.167465  -0.000000
    60  S    0.177120   0.000000
    61  C    0.043642   0.000000
    62  C   -0.070840   0.000000
    63  C    0.143439   0.000000
    64  O   -0.251700   0.000000
    65  C    0.042924  -0.000000
    66  C   -0.040553  -0.000000
    67  C    0.128413   0.000000
    68  O   -0.251626  -0.000000
    69  C    0.040645   0.000000
    70  C   -0.069851  -0.000000
    71  C   -0.128138   0.000000
    72  C    0.021569   0.000000
    73  C    0.026549  -0.000000
    74  C   -0.155111   0.000000
    75  S    0.163875   0.000000
    76  H    0.011088   0.000000
    77  H    0.008470   0.000000
    78  H    0.065490   0.000000
    79  H    0.051804   0.000000
    80  H    0.053598  -0.000000
    81  H    0.052584   0.000000
    82  H    0.065466   0.000000
    83  H    0.053594  -0.000000
    84  H    0.007634  -0.000000
    85  H    0.000031  -0.000000
    86  H    0.003594  -0.000000
    87  H    0.008606   0.000000
    88  H    0.053897  -0.000000
    89  H    0.063546   0.000000
    90  H    0.055596  -0.000000
    91  H    0.064118  -0.000000
    92  H    0.051513  -0.000000
    93  H    0.055908   0.000000
    94  H    0.000164   0.000000
    95  H    0.000452   0.000000
    96  H    0.002639   0.000000
    97  H    0.000664   0.000000
    98  H    0.056144   0.000000
    99  H    0.050589   0.000000
   100  H    0.063797   0.000000
   101  H    0.055368  -0.000000
   102  H    0.063305  -0.000000
   103  H    0.054696  -0.000000
   104  H    0.007935  -0.000000
   105  H   -0.000054   0.000000
   106  H    0.002420   0.000000
   107  H   -0.000130  -0.000000
   108  H    0.051224   0.000000
   109  H    0.063857   0.000000
   110  H    0.055643   0.000000
   111  H    0.055385   0.000000
   112  H    0.063097   0.000000
   113  H    0.053750  -0.000000
   114  H    0.008446   0.000000
   115  H   -0.000077  -0.000000
   116  H    0.002311   0.000000
   117  H   -0.000661  -0.000000
   118  H    0.065410  -0.000000
   119  H    0.050426   0.000000
   120  H    0.054228   0.000000
   121  H    0.054410  -0.000000
   122  H    0.063032  -0.000000
   123  H    0.052811  -0.000000
   124  H    0.007601  -0.000000
   125  H    0.001462   0.000000
   126  H    0.005572  -0.000000
   127  H    0.037184  -0.000000
 Sum of Mulliken charges =  -0.00000   0.00000

 Dipole moment (field-independent basis, Debye):
    X=            -12.2552    Y=              0.1467    Z=              0.1263  Tot=             12.2567
 Quadrupole moment (field-independent basis, Debye-Ang):
   XX=           -411.3722   YY=           -386.9584   ZZ=           -454.1839
   XY=             28.7733   XZ=            -13.3645   YZ=             22.1142

 Normal termination of Gaussian 16 at Fri Jul 24 07:51:45 2020.
