 Gaussian 16, Revision A.03,
 Gaussian 16:  EM64L-G16RevA.03 25-Dec-2016

 ---------------------------------------------------------------
 #P uLC-wPBE/cc-pVDZ iop(3/107=0312000000, 3/108=0312000000) opt
 ---------------------------------------------------------------

 ------------
 H8 C11 N1 F1
 ------------
 Symbolic Z-matrix:
 Charge =  0 Multiplicity = 1

 SCF Done:  E(ULC-wPBE) =  -578.129321320     A.U. after   15 cycles
 SCF Done:  E(ULC-wPBE) =  -578.161760700     A.U. after   14 cycles
 SCF Done:  E(ULC-wPBE) =  -578.168407706     A.U. after   14 cycles
 SCF Done:  E(ULC-wPBE) =  -578.168781546     A.U. after   13 cycles
 SCF Done:  E(ULC-wPBE) =  -578.168856634     A.U. after   12 cycles
 SCF Done:  E(ULC-wPBE) =  -578.168875347     A.U. after   11 cycles
 SCF Done:  E(ULC-wPBE) =  -578.168885791     A.U. after   11 cycles
 SCF Done:  E(ULC-wPBE) =  -578.168914837     A.U. after   13 cycles
 SCF Done:  E(ULC-wPBE) =  -578.168710446     A.U. after   14 cycles
 SCF Done:  E(ULC-wPBE) =  -578.168951008     A.U. after   12 cycles
 SCF Done:  E(ULC-wPBE) =  -578.168993420     A.U. after   13 cycles
 SCF Done:  E(ULC-wPBE) =  -578.169034134     A.U. after   12 cycles
 SCF Done:  E(ULC-wPBE) =  -578.169050834     A.U. after   12 cycles
 SCF Done:  E(ULC-wPBE) =  -578.169056863     A.U. after   12 cycles
 SCF Done:  E(ULC-wPBE) =  -578.169058118     A.U. after   11 cycles
 SCF Done:  E(ULC-wPBE) =  -578.169058926     A.U. after    9 cycles
 SCF Done:  E(ULC-wPBE) =  -578.169058881     A.U. after   10 cycles
 SCF Done:  E(ULC-wPBE) =  -578.169059065     A.U. after    9 cycles
 Optimization completed.
    -- Stationary point found.

                         Standard orientation:
 ---------------------------------------------------------------------
 Center     Atomic      Atomic             Coordinates (Angstroms)
 Number     Number       Type             X           Y           Z
 ---------------------------------------------------------------------
      1          6           0       -3.613132   -0.169892   -0.008934
      2          6           0       -2.968527    1.026047    0.287764
      3          6           0       -1.578378    1.063399    0.300833
      4          6           0       -0.865310   -0.108662    0.014054
      5          7           0       -1.488353   -1.265440   -0.259830
      6          6           0       -2.820000   -1.284526   -0.269966
      7          6           0        0.627451   -0.182865    0.026868
      8          6           0        1.246226   -1.434515    0.161928
      9          6           0        2.628686   -1.573000    0.182585
     10          6           0        3.442717   -0.447438    0.056319
     11          6           0        2.862339    0.807170   -0.092449
     12          6           0        1.478168    0.917939   -0.105435
     13          9           0        0.966827    2.161416   -0.268821
     14          1           0       -4.704073   -0.244025   -0.033690
     15          1           0       -3.542855    1.930940    0.511835
     16          1           0       -1.051746    1.988159    0.536672
     17          1           0       -3.282056   -2.253282   -0.501495
     18          1           0        0.589761   -2.304646    0.243217
     19          1           0        3.074029   -2.565859    0.295938
     20          1           0        4.532818   -0.543729    0.070233
     21          1           0        3.459712    1.715828   -0.205914
 ---------------------------------------------------------------------

 The electronic state is 1-A.
 Alpha  occ. eigenvalues --  -24.45936 -14.16936 -10.15926 -10.12253 -10.10985
 Alpha  occ. eigenvalues --  -10.09570 -10.09045 -10.08625 -10.08507 -10.08285
 Alpha  occ. eigenvalues --  -10.08185 -10.07901 -10.07676  -1.30066  -1.04989
 Alpha  occ. eigenvalues --   -0.97166  -0.91108  -0.89557  -0.85391  -0.84318
 Alpha  occ. eigenvalues --   -0.74969  -0.74434  -0.71100  -0.70211  -0.64974
 Alpha  occ. eigenvalues --   -0.62107  -0.59966  -0.58884  -0.57121  -0.56710
 Alpha  occ. eigenvalues --   -0.55635  -0.53271  -0.52636  -0.51910  -0.50351
 Alpha  occ. eigenvalues --   -0.48731  -0.47425  -0.46868  -0.45589  -0.43079
 Alpha  occ. eigenvalues --   -0.39488  -0.37859  -0.35228  -0.34187  -0.32198
 Alpha virt. eigenvalues --    0.02210   0.05197   0.07279   0.10111   0.14679
 Alpha virt. eigenvalues --    0.15150   0.18589   0.19339   0.21024   0.21486
 Alpha virt. eigenvalues --    0.22157   0.22343   0.24049   0.26387   0.27157

  Beta  occ. eigenvalues --  -24.45936 -14.16936 -10.15926 -10.12253 -10.10985
  Beta  occ. eigenvalues --  -10.09570 -10.09045 -10.08625 -10.08507 -10.08285
  Beta  occ. eigenvalues --  -10.08185 -10.07901 -10.07676  -1.30066  -1.04989
  Beta  occ. eigenvalues --   -0.97166  -0.91108  -0.89557  -0.85391  -0.84318
  Beta  occ. eigenvalues --   -0.74969  -0.74434  -0.71100  -0.70211  -0.64974
  Beta  occ. eigenvalues --   -0.62107  -0.59966  -0.58884  -0.57121  -0.56710
  Beta  occ. eigenvalues --   -0.55635  -0.53271  -0.52636  -0.51910  -0.50351
  Beta  occ. eigenvalues --   -0.48731  -0.47425  -0.46868  -0.45589  -0.43079
  Beta  occ. eigenvalues --   -0.39488  -0.37859  -0.35228  -0.34187  -0.32198
  Beta virt. eigenvalues --    0.02210   0.05197   0.07279   0.10111   0.14679
  Beta virt. eigenvalues --    0.15150   0.18589   0.19339   0.21024   0.21486
  Beta virt. eigenvalues --    0.22157   0.22343   0.24049   0.26387   0.27157

 Mulliken charges and spin densities:
               1          2
     1  C   -0.047246  -0.000000
     2  C    0.067366  -0.000000
     3  C   -0.018848   0.000000
     4  C    0.087513  -0.000000
     5  N   -0.196734   0.000000
     6  C    0.089015   0.000000
     7  C   -0.046250   0.000000
     8  C    0.042820  -0.000000
     9  C    0.024185   0.000000
    10  C    0.025488  -0.000000
    11  C    0.011737   0.000000
    12  C    0.067906  -0.000000
    13  F   -0.136373   0.000000
    14  H    0.001731  -0.000000
    15  H    0.005323  -0.000000
    16  H    0.006944  -0.000000
    17  H    0.010834   0.000000
    18  H   -0.001977  -0.000000
    19  H   -0.003044   0.000000
    20  H    0.000585   0.000000
    21  H    0.009024  -0.000000
 Sum of Mulliken charges =  -0.00000   0.00000

 Dipole moment (field-independent basis, Debye):
    X=             -0.5238    Y=              0.3754    Z=              0.5194  Tot=              0.8277
 Quadrupole moment (field-independent basis, Debye-Ang):
   XX=            -57.4561   YY=            -70.5868   ZZ=            -77.2375
   XY=             -1.7758   XZ=             -0.2641   YZ=              0.4496

 Normal termination of Gaussian 16 at Fri Jul 24 13:40:14 2020.
