 Gaussian 16, Revision A.03,
 Gaussian 16:  EM64L-G16RevA.03 25-Dec-2016

 ---------------------------------------------------------------
 #P uLC-wPBE/cc-pVDZ iop(3/107=0264900000, 3/108=0264900000) opt
 ---------------------------------------------------------------

 ------------------
 H8 C10 S1 N1 O1 F1
 ------------------
 Symbolic Z-matrix:
 Charge =  0 Multiplicity = 1

 SCF Done:  E(ULC-wPBE) =  -1013.24418598     A.U. after   16 cycles
 SCF Done:  E(ULC-wPBE) =  -1013.27187910     A.U. after   14 cycles
 SCF Done:  E(ULC-wPBE) =  -1013.27714785     A.U. after   15 cycles
 SCF Done:  E(ULC-wPBE) =  -1013.27768991     A.U. after   13 cycles
 SCF Done:  E(ULC-wPBE) =  -1013.27790383     A.U. after   14 cycles
 SCF Done:  E(ULC-wPBE) =  -1013.27797428     A.U. after   13 cycles
 SCF Done:  E(ULC-wPBE) =  -1013.27804311     A.U. after   12 cycles
 SCF Done:  E(ULC-wPBE) =  -1013.27806884     A.U. after   11 cycles
 SCF Done:  E(ULC-wPBE) =  -1013.27807385     A.U. after   10 cycles
 SCF Done:  E(ULC-wPBE) =  -1013.27807477     A.U. after    9 cycles
 SCF Done:  E(ULC-wPBE) =  -1013.27807496     A.U. after    8 cycles
 Optimization completed.
    -- Stationary point found.

                         Standard orientation:
 ---------------------------------------------------------------------
 Center     Atomic      Atomic             Coordinates (Angstroms)
 Number     Number       Type             X           Y           Z
 ---------------------------------------------------------------------
      1          6           0        3.100397   -1.418109    0.232257
      2          6           0        2.019920   -2.281593    0.378084
      3          7           0        0.747845   -1.871903    0.318098
      4          6           0        0.491809   -0.576347    0.100667
      5          6           0        1.527512    0.365697   -0.124077
      6          8           0        1.148647    1.625316   -0.445722
      7          6           0        2.161794    2.599239   -0.619785
      8          6           0        2.851254   -0.070040   -0.031306
      9          6           0       -0.935555   -0.206642    0.045211
     10          6           0       -1.618492    0.923053    0.437301
     11          9           0       -1.044667    1.994853    1.007984
     12          6           0       -3.027042    0.868679    0.246043
     13          6           0       -3.405416   -0.333500   -0.288694
     14         16           0       -2.070184   -1.387184   -0.539734
     15          1           0        4.128144   -1.789930    0.307864
     16          1           0        2.173294   -3.354426    0.556651
     17          1           0        1.638427    3.542049   -0.840048
     18          1           0        2.767351    2.726653    0.298957
     19          1           0        2.831043    2.348244   -1.466486
     20          1           0        3.683951    0.624185   -0.179221
     21          1           0       -3.702470    1.685683    0.511499
     22          1           0       -4.415958   -0.663009   -0.540448
 ---------------------------------------------------------------------

 The electronic state is 1-A.
 Alpha  occ. eigenvalues --  -88.24352 -24.42577 -18.95340 -14.14383 -10.12394
 Alpha  occ. eigenvalues --  -10.11824 -10.10867 -10.09519 -10.07618 -10.07408
 Alpha  occ. eigenvalues --  -10.07377 -10.06666 -10.06021 -10.05167  -7.84799
 Alpha  occ. eigenvalues --   -5.86716  -5.86225  -5.85817  -1.26593  -1.14501
 Alpha  occ. eigenvalues --   -1.01950  -0.96312  -0.88386  -0.86698  -0.81670
 Alpha  occ. eigenvalues --   -0.80600  -0.78766  -0.72233  -0.69842  -0.65689
 Alpha  occ. eigenvalues --   -0.64990  -0.63227  -0.60553  -0.59043  -0.56376
 Alpha  occ. eigenvalues --   -0.55971  -0.53803  -0.52934  -0.52152  -0.51665
 Alpha  occ. eigenvalues --   -0.50973  -0.49894  -0.47652  -0.46561  -0.45482
 Alpha  occ. eigenvalues --   -0.44047  -0.42622  -0.42141  -0.41617  -0.37747
 Alpha  occ. eigenvalues --   -0.33933  -0.33287  -0.31840  -0.28851
 Alpha virt. eigenvalues --    0.02102   0.05796   0.08182   0.11762   0.13277
 Alpha virt. eigenvalues --    0.15056   0.15642   0.16073   0.17615   0.19045
 Alpha virt. eigenvalues --    0.19629   0.20435   0.20622   0.21786   0.22680

  Beta  occ. eigenvalues --  -88.24352 -24.42577 -18.95340 -14.14383 -10.12394
  Beta  occ. eigenvalues --  -10.11824 -10.10867 -10.09519 -10.07618 -10.07408
  Beta  occ. eigenvalues --  -10.07377 -10.06666 -10.06021 -10.05167  -7.84799
  Beta  occ. eigenvalues --   -5.86716  -5.86225  -5.85817  -1.26593  -1.14501
  Beta  occ. eigenvalues --   -1.01950  -0.96312  -0.88386  -0.86698  -0.81670
  Beta  occ. eigenvalues --   -0.80600  -0.78766  -0.72233  -0.69842  -0.65689
  Beta  occ. eigenvalues --   -0.64990  -0.63227  -0.60553  -0.59043  -0.56376
  Beta  occ. eigenvalues --   -0.55971  -0.53803  -0.52934  -0.52152  -0.51665
  Beta  occ. eigenvalues --   -0.50973  -0.49894  -0.47652  -0.46561  -0.45482
  Beta  occ. eigenvalues --   -0.44047  -0.42622  -0.42141  -0.41617  -0.37747
  Beta  occ. eigenvalues --   -0.33933  -0.33287  -0.31840  -0.28851
  Beta virt. eigenvalues --    0.02102   0.05796   0.08182   0.11762   0.13277
  Beta virt. eigenvalues --    0.15056   0.15642   0.16073   0.17615   0.19045
  Beta virt. eigenvalues --    0.19629   0.20435   0.20622   0.21786   0.22680

 Mulliken charges and spin densities:
               1          2
     1  C   -0.030792   0.000000
     2  C    0.077939   0.000000
     3  N   -0.191402   0.000000
     4  C    0.078270  -0.000000
     5  C    0.110964   0.000000
     6  O   -0.228815  -0.000000
     7  C    0.055351   0.000000
     8  C    0.008712   0.000000
     9  C   -0.166725   0.000000
    10  C    0.103649  -0.000000
    11  F   -0.119302  -0.000000
    12  C    0.048983   0.000000
    13  C   -0.130325  -0.000000
    14  S    0.201335   0.000000
    15  H   -0.005036  -0.000000
    16  H    0.004086  -0.000000
    17  H    0.058920  -0.000000
    18  H    0.047205  -0.000000
    19  H    0.045477   0.000000
    20  H    0.000436  -0.000000
    21  H    0.001743  -0.000000
    22  H    0.029326   0.000000
 Sum of Mulliken charges =  -0.00000  -0.00000

 Dipole moment (field-independent basis, Debye):
    X=              1.9701    Y=              1.7470    Z=             -0.7661  Tot=              2.7423
 Quadrupole moment (field-independent basis, Debye-Ang):
   XX=            -66.9064   YY=            -81.8175   ZZ=            -89.1551
   XY=              2.3051   XZ=              0.0841   YZ=             -0.9926

 Normal termination of Gaussian 16 at Thu Jul 23 15:52:55 2020.
