 Gaussian 16, Revision A.03,
 Gaussian 16:  EM64L-G16RevA.03 25-Dec-2016

 ---------------------------------------------------------------
 #P uLC-wPBE/cc-pVDZ iop(3/107=0110100000, 3/108=0110100000) opt
 ---------------------------------------------------------------

 ------------------
 H8 C10 S1 N1 O1 F1
 ------------------
 Symbolic Z-matrix:
 Charge =  0 Multiplicity = 1

 SCF Done:  E(ULC-wPBE) =  -1013.12092092     A.U. after   15 cycles
 SCF Done:  E(ULC-wPBE) =  -1013.14967916     A.U. after   14 cycles
 SCF Done:  E(ULC-wPBE) =  -1013.15762182     A.U. after   14 cycles
 SCF Done:  E(ULC-wPBE) =  -1013.15832681     A.U. after   13 cycles
 SCF Done:  E(ULC-wPBE) =  -1013.15865755     A.U. after   14 cycles
 SCF Done:  E(ULC-wPBE) =  -1013.15895428     A.U. after   13 cycles
 SCF Done:  E(ULC-wPBE) =  -1013.15908949     A.U. after   12 cycles
 SCF Done:  E(ULC-wPBE) =  -1013.15912900     A.U. after   12 cycles
 SCF Done:  E(ULC-wPBE) =  -1013.15913385     A.U. after   10 cycles
 SCF Done:  E(ULC-wPBE) =  -1013.15913558     A.U. after   10 cycles
 SCF Done:  E(ULC-wPBE) =  -1013.15913608     A.U. after    9 cycles
 SCF Done:  E(ULC-wPBE) =  -1013.15913616     A.U. after    7 cycles
 Optimization completed.
    -- Stationary point found.

                         Standard orientation:
 ---------------------------------------------------------------------
 Center     Atomic      Atomic             Coordinates (Angstroms)
 Number     Number       Type             X           Y           Z
 ---------------------------------------------------------------------
      1          6           0       -3.722323    0.035642   -0.224642
      2          6           0       -3.044929   -1.163557   -0.487416
      3          7           0       -1.714759   -1.302122   -0.403605
      4          6           0       -0.955455   -0.238114   -0.034728
      5          6           0       -1.582606    0.981884    0.313526
      6          9           0       -0.862512    2.014224    0.807494
      7          6           0       -2.963574    1.133271    0.198868
      8          6           0        0.486114   -0.482396    0.034022
      9          6           0        1.601248    0.353682   -0.106431
     10          8           0        1.454533    1.678476   -0.381938
     11          6           0        2.648882    2.450299   -0.468920
     12          6           0        2.846428   -0.348153    0.006774
     13          6           0        2.664626   -1.700655    0.206002
     14         16           0        0.997942   -2.148792    0.242048
     15          1           0       -4.813784    0.105069   -0.328047
     16          1           0       -3.601330   -2.067263   -0.785553
     17          1           0       -3.417001    2.097502    0.466381
     18          1           0        3.225260    2.425136    0.481673
     19          1           0        2.323926    3.486988   -0.668626
     20          1           0        3.302336    2.105807   -1.300510
     21          1           0        3.833386    0.121241   -0.068799
     22          1           0        3.439314   -2.466193    0.321675
 ---------------------------------------------------------------------

 The electronic state is 1-A.
 Alpha  occ. eigenvalues --  -88.15765 -24.34749 -18.86487 -14.06016 -10.04543
 Alpha  occ. eigenvalues --  -10.02307 -10.01873 -10.01146  -9.99314  -9.98905
 Alpha  occ. eigenvalues --   -9.98406  -9.98244  -9.97518  -9.96763  -7.75971
 Alpha  occ. eigenvalues --   -5.78059  -5.77611  -5.77221  -1.18145  -1.04465
 Alpha  occ. eigenvalues --   -0.92593  -0.86169  -0.79405  -0.76977  -0.74111
 Alpha  occ. eigenvalues --   -0.71817  -0.68130  -0.64029  -0.63259  -0.57454
 Alpha  occ. eigenvalues --   -0.56548  -0.55187  -0.53034  -0.51379  -0.48996
 Alpha  occ. eigenvalues --   -0.47843  -0.47392  -0.46524  -0.44928  -0.43992
 Alpha  occ. eigenvalues --   -0.42277  -0.41813  -0.41282  -0.39913  -0.39591
 Alpha  occ. eigenvalues --   -0.37820  -0.36385  -0.34902  -0.33952  -0.32179
 Alpha  occ. eigenvalues --   -0.29514  -0.27557  -0.26259  -0.23337
 Alpha virt. eigenvalues --   -0.01960   0.00932   0.03745   0.06532   0.09506
 Alpha virt. eigenvalues --    0.09591   0.10165   0.12037   0.12700   0.14450
 Alpha virt. eigenvalues --    0.14922   0.15479   0.16106   0.16427   0.16755

  Beta  occ. eigenvalues --  -88.15765 -24.34749 -18.86487 -14.06016 -10.04543
  Beta  occ. eigenvalues --  -10.02307 -10.01873 -10.01146  -9.99314  -9.98905
  Beta  occ. eigenvalues --   -9.98406  -9.98244  -9.97518  -9.96763  -7.75971
  Beta  occ. eigenvalues --   -5.78059  -5.77611  -5.77221  -1.18145  -1.04465
  Beta  occ. eigenvalues --   -0.92593  -0.86169  -0.79405  -0.76977  -0.74111
  Beta  occ. eigenvalues --   -0.71817  -0.68130  -0.64029  -0.63259  -0.57454
  Beta  occ. eigenvalues --   -0.56548  -0.55187  -0.53034  -0.51379  -0.48996
  Beta  occ. eigenvalues --   -0.47843  -0.47392  -0.46524  -0.44928  -0.43992
  Beta  occ. eigenvalues --   -0.42277  -0.41813  -0.41282  -0.39913  -0.39591
  Beta  occ. eigenvalues --   -0.37820  -0.36385  -0.34902  -0.33952  -0.32179
  Beta  occ. eigenvalues --   -0.29514  -0.27557  -0.26259  -0.23337
  Beta virt. eigenvalues --   -0.01960   0.00932   0.03745   0.06532   0.09506
  Beta virt. eigenvalues --    0.09591   0.10165   0.12037   0.12700   0.14450
  Beta virt. eigenvalues --    0.14922   0.15479   0.16106   0.16427   0.16755

 Mulliken charges and spin densities:
               1          2
     1  C   -0.019997   0.000000
     2  C    0.085389  -0.000000
     3  N   -0.209813  -0.000000
     4  C    0.095997  -0.000000
     5  C    0.093922   0.000000
     6  F   -0.114481  -0.000000
     7  C    0.067527  -0.000000
     8  C   -0.165989   0.000000
     9  C    0.110858   0.000000
    10  O   -0.224989   0.000000
    11  C    0.059386   0.000000
    12  C    0.027988  -0.000000
    13  C   -0.121335   0.000000
    14  S    0.188618   0.000000
    15  H   -0.013027   0.000000
    16  H    0.001013   0.000000
    17  H   -0.001194   0.000000
    18  H    0.043562  -0.000000
    19  H    0.049941  -0.000000
    20  H    0.042876   0.000000
    21  H   -0.013587  -0.000000
    22  H    0.017335   0.000000
 Sum of Mulliken charges =  -0.00000   0.00000

 Dipole moment (field-independent basis, Debye):
    X=              0.9060    Y=              1.6383    Z=             -0.0997  Tot=              1.8748
 Quadrupole moment (field-independent basis, Debye-Ang):
   XX=            -66.1000   YY=            -81.9102   ZZ=            -89.6247
   XY=              0.9378   XZ=             -0.3297   YZ=             -1.4045

 Normal termination of Gaussian 16 at Fri Jul 24 14:48:07 2020.
