 Gaussian 16, Revision A.03,
 Gaussian 16:  EM64L-G16RevA.03 25-Dec-2016

 ---------------------------------------------------------------
 #P uLC-wPBE/cc-pVDZ iop(3/107=0387900000, 3/108=0387900000) opt
 ---------------------------------------------------------------

 -----------
 H32 C60 F10
 -----------
 Symbolic Z-matrix:
 Charge =  0 Multiplicity = 1

 SCF Done:  E(ULC-wPBE) =  -3301.82749563     A.U. after   17 cycles
 SCF Done:  E(ULC-wPBE) =  -3301.90749049     A.U. after   14 cycles
 SCF Done:  E(ULC-wPBE) =  -3301.97590446     A.U. after   16 cycles
 SCF Done:  E(ULC-wPBE) =  -3301.99510738     A.U. after   14 cycles
 SCF Done:  E(ULC-wPBE) =  -3301.99922827     A.U. after   14 cycles
 SCF Done:  E(ULC-wPBE) =  -3301.99992858     A.U. after   13 cycles
 SCF Done:  E(ULC-wPBE) =  -3302.00102813     A.U. after   15 cycles
 SCF Done:  E(ULC-wPBE) =  -3302.00135873     A.U. after   11 cycles
 SCF Done:  E(ULC-wPBE) =  -3302.00106465     A.U. after   14 cycles
 SCF Done:  E(ULC-wPBE) =  -3302.00135076     A.U. after   14 cycles
 SCF Done:  E(ULC-wPBE) =  -3302.00181413     A.U. after   12 cycles
 SCF Done:  E(ULC-wPBE) =  -3302.00163561     A.U. after   11 cycles
 SCF Done:  E(ULC-wPBE) =  -3302.00183523     A.U. after   11 cycles
 SCF Done:  E(ULC-wPBE) =  -3302.00179582     A.U. after   12 cycles
 SCF Done:  E(ULC-wPBE) =  -3302.00184622     A.U. after   11 cycles
 SCF Done:  E(ULC-wPBE) =  -3302.00184704     A.U. after    7 cycles
 SCF Done:  E(ULC-wPBE) =  -3302.00184653     A.U. after    7 cycles
 SCF Done:  E(ULC-wPBE) =  -3302.00184736     A.U. after    8 cycles
 SCF Done:  E(ULC-wPBE) =  -3302.00184738     A.U. after    7 cycles
 SCF Done:  E(ULC-wPBE) =  -3302.00184736     A.U. after    6 cycles
 Optimization completed.
    -- Stationary point found.

                         Standard orientation:
 ---------------------------------------------------------------------
 Center     Atomic      Atomic             Coordinates (Angstroms)
 Number     Number       Type             X           Y           Z
 ---------------------------------------------------------------------
      1          6           0       20.809761    0.155332    0.154583
      2          6           0       20.120671    1.306650   -0.198545
      3          6           0       18.737254    1.283332   -0.212156
      4          9           0       18.090004    2.410907   -0.559469
      5          6           0       17.998201    0.148947    0.113929
      6          6           0       18.719992   -0.996081    0.461015
      7          6           0       20.107301   -0.997768    0.485866
      8          6           0       16.514856    0.166603    0.100355
      9          6           0       15.778821    1.194927    0.693289
     10          6           0       14.392903    1.195475    0.688352
     11          6           0       13.680990    0.159070    0.080904
     12          6           0       14.397996   -0.874472   -0.518050
     13          6           0       15.780071   -0.852772   -0.498884
     14          9           0       16.429702   -1.865606   -1.099361
     15          6           0       12.196179    0.153410    0.070448
     16          6           0       11.490985   -1.028757    0.293283
     17          6           0       10.109341   -1.017894    0.278928
     18          9           0        9.462285   -2.164907    0.530947
     19          6           0        9.368932    0.136241    0.042415
     20          6           0       10.088449    1.311098   -0.174587
     21          6           0       11.475543    1.326413   -0.161387
     22          6           0        7.887330    0.125831    0.055337
     23          6           0        7.158692    1.003635    0.857573
     24          6           0        5.771456    1.011782    0.851804
     25          6           0        5.060108    0.130686    0.035428
     26          6           0        5.774294   -0.750429   -0.775746
     27          6           0        7.155855   -0.736641   -0.755443
     28          9           0        7.811501   -1.572899   -1.572960
     29          6           0        3.575307    0.127670    0.027405
     30          6           0        2.869135   -1.072845   -0.006593
     31          6           0        1.486998   -1.056795   -0.012824
     32          9           0        0.847922   -2.239855   -0.034297
     33          6           0        0.741378    0.118844    0.012178
     34          6           0        1.466776    1.312115    0.048206
     35          6           0        2.852536    1.322239    0.053985
     36          6           0       -0.740896    0.097045   -0.008193
     37          6           0       -1.460444   -0.715395   -0.887801
     38          6           0       -2.846086   -0.718855   -0.907934
     39          6           0       -3.574945    0.095005   -0.038143
     40          6           0       -2.874620    0.910239    0.848462
     41          6           0       -1.492465    0.896925    0.848431
     42          9           0       -0.859576    1.692007    1.729721
     43          6           0       -5.059782    0.098992   -0.053099
     44          6           0       -5.767225   -1.095029   -0.187334
     45          6           0       -7.148890   -1.077100   -0.199154
     46          9           0       -7.797966   -2.240910   -0.346824
     47          6           0       -7.886923    0.096252   -0.077967
     48          6           0       -7.164929    1.282684    0.048242
     49          6           0       -5.777794    1.290633    0.062229
     50          6           0       -9.368236    0.090621   -0.115844
     51          6           0      -10.078537    0.891390   -1.009819
     52          6           0      -11.465594    0.904640   -1.028478
     53          6           0      -12.195413    0.107753   -0.144516
     54          6           0      -11.499385   -0.695015    0.758592
     55          6           0      -10.117629   -0.688477    0.760265
     56          9           0       -9.479607   -1.445688    1.664187
     57          6           0      -13.680193    0.108046   -0.159586
     58          6           0      -14.385897    1.298691   -0.319189
     59          6           0      -15.768060    1.281635   -0.333213
     60          9           0      -16.406287    2.456655   -0.478610
     61          6           0      -16.514042    0.114511   -0.194688
     62          6           0      -15.789352   -1.068510   -0.032968
     63          6           0      -14.403545   -1.077862   -0.017075
     64          6           0      -17.997046    0.133043   -0.228505
     65          6           0      -18.704744    0.834771   -1.207886
     66          6           0      -20.091904    0.832854   -1.240077
     67          6           0      -20.808336    0.127269   -0.280011
     68          6           0      -20.133384   -0.575463    0.707756
     69          6           0      -18.749789   -0.560559    0.715773
     70          9           0      -18.116267   -1.247477    1.683896
     71          1           0       21.901151    0.161164    0.170345
     72          1           0       20.633365    2.230161   -0.469570
     73          1           0       18.171829   -1.902691    0.719471
     74          1           0       20.642797   -1.906246    0.765805
     75          1           0       16.314628    2.010702    1.179377
     76          1           0       13.854190    2.003707    1.185551
     77          1           0       13.898075   -1.697145   -1.030886
     78          1           0       12.002102   -1.967679    0.509623
     79          1           0        9.538175    2.231807   -0.379384
     80          1           0       12.007124    2.257636   -0.363339
     81          1           0        7.701958    1.682731    1.517961
     82          1           0        5.232788    1.692135    1.513262
     83          1           0        5.270371   -1.438939   -1.455203
     84          1           0        3.377812   -2.037678   -0.001695
     85          1           0        0.922988    2.257014    0.062113
     86          1           0        3.382806    2.275870    0.055861
     87          1           0       -0.912074   -1.354211   -1.580570
     88          1           0       -3.370783   -1.348982   -1.627920
     89          1           0       -3.388352    1.546276    1.570257
     90          1           0       -5.257805   -2.055983   -0.267924
     91          1           0       -7.713609    2.221869    0.144852
     92          1           0       -5.244651    2.238887    0.148072
     93          1           0       -9.520938    1.503528   -1.721738
     94          1           0      -11.989151    1.522058   -1.760215
     95          1           0      -12.018489   -1.312966    1.492146
     96          1           0      -13.877225    2.259353   -0.407908
     97          1           0      -16.333947   -2.007087    0.073617
     98          1           0      -13.873935   -2.026474    0.085173
     99          1           0      -18.145476    1.390597   -1.961230
    100          1           0      -20.616288    1.386384   -2.020521
    101          1           0      -21.899698    0.122260   -0.297990
    102          1           0      -20.657298   -1.137583    1.481521
 ---------------------------------------------------------------------

 The electronic state is 1-A.
 Alpha  occ. eigenvalues --  -24.50226 -24.50189 -24.50018 -24.49987 -24.49850
 Alpha  occ. eigenvalues --  -24.49845 -24.49839 -24.49828 -24.49816 -24.49784
 Alpha  occ. eigenvalues --  -10.20896 -10.20884 -10.20755 -10.20747 -10.20717
 Alpha  occ. eigenvalues --  -10.20700 -10.20697 -10.20691 -10.20462 -10.20453
 Alpha  occ. eigenvalues --  -10.14642 -10.14637 -10.14629 -10.14624 -10.14569
 Alpha  occ. eigenvalues --  -10.14562 -10.14476 -10.14473 -10.14440 -10.14426
 Alpha  occ. eigenvalues --  -10.14308 -10.14308 -10.14271 -10.14267 -10.14213
 Alpha  occ. eigenvalues --  -10.14210 -10.14090 -10.14086 -10.13644 -10.13634
 Alpha  occ. eigenvalues --  -10.13605 -10.13600 -10.13487 -10.13473 -10.13296
 Alpha  occ. eigenvalues --  -10.13277 -10.13178 -10.13176 -10.13100 -10.13083
 Alpha  occ. eigenvalues --  -10.13065 -10.13058 -10.13050 -10.13030 -10.12991
 Alpha  occ. eigenvalues --  -10.12961 -10.12956 -10.12934 -10.12862 -10.12837
 Alpha  occ. eigenvalues --  -10.12797 -10.12779 -10.12775 -10.12763 -10.12722
 Alpha  occ. eigenvalues --  -10.12713 -10.12624 -10.12594 -10.12349 -10.12345
 Alpha  occ. eigenvalues --   -1.34876  -1.34870  -1.34859  -1.34818  -1.34655
 Alpha  occ. eigenvalues --   -1.34633  -1.34456  -1.34440  -1.34284  -1.34267
 Alpha  occ. eigenvalues --   -1.04512  -1.04324  -1.04031  -1.03710  -1.03110
 Alpha  occ. eigenvalues --   -1.02721  -1.02171  -1.01599  -1.01027  -1.00730
 Alpha  occ. eigenvalues --   -0.96953  -0.96130  -0.95071  -0.93884  -0.92704
 Alpha  occ. eigenvalues --   -0.91108  -0.90690  -0.90622  -0.90504  -0.90456
 Alpha  occ. eigenvalues --   -0.89995  -0.89820  -0.89739  -0.89641  -0.89543
 Alpha  occ. eigenvalues --   -0.89477  -0.89199  -0.87928  -0.86482  -0.85379
 Alpha  occ. eigenvalues --   -0.81101  -0.79894  -0.78312  -0.78228  -0.77878
 Alpha  occ. eigenvalues --   -0.77658  -0.77248  -0.76832  -0.76285  -0.76014
 Alpha  occ. eigenvalues --   -0.75417  -0.75102  -0.74573  -0.74507  -0.74179
 Alpha  occ. eigenvalues --   -0.73869  -0.73464  -0.73117  -0.72721  -0.72576
 Alpha  occ. eigenvalues --   -0.69394  -0.69283  -0.68767  -0.68507  -0.67695
 Alpha  occ. eigenvalues --   -0.67601  -0.66108  -0.65452  -0.65145  -0.64947
 Alpha  occ. eigenvalues --   -0.64671  -0.64385  -0.63929  -0.63691  -0.63556
 Alpha  occ. eigenvalues --   -0.62984  -0.62879  -0.62792  -0.62683  -0.62411
 Alpha  occ. eigenvalues --   -0.62152  -0.61852  -0.61688  -0.61491  -0.61476
 Alpha  occ. eigenvalues --   -0.61051  -0.60553  -0.60070  -0.59922  -0.59780
 Alpha  occ. eigenvalues --   -0.59671  -0.59642  -0.59571  -0.59543  -0.59343
 Alpha  occ. eigenvalues --   -0.59302  -0.59106  -0.58725  -0.58632  -0.58055
 Alpha  occ. eigenvalues --   -0.57587  -0.56990  -0.56741  -0.56590  -0.56353
 Alpha  occ. eigenvalues --   -0.56337  -0.56215  -0.56139  -0.55965  -0.55679
 Alpha  occ. eigenvalues --   -0.55485  -0.54717  -0.53780  -0.53282  -0.53151
 Alpha  occ. eigenvalues --   -0.52901  -0.52830  -0.52690  -0.52617  -0.52338
 Alpha  occ. eigenvalues --   -0.52193  -0.51810  -0.51431  -0.51362  -0.51141
 Alpha  occ. eigenvalues --   -0.50862  -0.50723  -0.50527  -0.50255  -0.50139
 Alpha  occ. eigenvalues --   -0.50101  -0.49797  -0.49468  -0.49294  -0.49183
 Alpha  occ. eigenvalues --   -0.48912  -0.48642  -0.48639  -0.48243  -0.48041
 Alpha  occ. eigenvalues --   -0.47959  -0.47916  -0.47750  -0.47503  -0.47117
 Alpha  occ. eigenvalues --   -0.46685  -0.46380  -0.45892  -0.44993  -0.44796
 Alpha  occ. eigenvalues --   -0.44721  -0.41784  -0.41047  -0.40337  -0.38953
 Alpha  occ. eigenvalues --   -0.37622  -0.37013  -0.36637  -0.36477  -0.36326
 Alpha  occ. eigenvalues --   -0.36288  -0.36212  -0.36026  -0.35991  -0.35889
 Alpha  occ. eigenvalues --   -0.35775  -0.35291  -0.34297  -0.32988  -0.32205
 Alpha  occ. eigenvalues --   -0.31568
 Alpha virt. eigenvalues --    0.00522   0.01429   0.02379   0.03963   0.05793
 Alpha virt. eigenvalues --    0.06240   0.06322   0.06646   0.06852   0.06908
 Alpha virt. eigenvalues --    0.06982   0.07061   0.07174   0.07229   0.07554

  Beta  occ. eigenvalues --  -24.50226 -24.50189 -24.50018 -24.49987 -24.49850
  Beta  occ. eigenvalues --  -24.49845 -24.49839 -24.49828 -24.49816 -24.49784
  Beta  occ. eigenvalues --  -10.20896 -10.20884 -10.20755 -10.20747 -10.20717
  Beta  occ. eigenvalues --  -10.20700 -10.20697 -10.20691 -10.20462 -10.20453
  Beta  occ. eigenvalues --  -10.14642 -10.14637 -10.14629 -10.14624 -10.14569
  Beta  occ. eigenvalues --  -10.14562 -10.14476 -10.14473 -10.14440 -10.14426
  Beta  occ. eigenvalues --  -10.14308 -10.14308 -10.14271 -10.14267 -10.14213
  Beta  occ. eigenvalues --  -10.14210 -10.14090 -10.14086 -10.13644 -10.13634
  Beta  occ. eigenvalues --  -10.13605 -10.13600 -10.13487 -10.13473 -10.13296
  Beta  occ. eigenvalues --  -10.13277 -10.13178 -10.13176 -10.13100 -10.13083
  Beta  occ. eigenvalues --  -10.13065 -10.13058 -10.13050 -10.13030 -10.12991
  Beta  occ. eigenvalues --  -10.12961 -10.12956 -10.12934 -10.12862 -10.12837
  Beta  occ. eigenvalues --  -10.12797 -10.12779 -10.12775 -10.12763 -10.12722
  Beta  occ. eigenvalues --  -10.12713 -10.12624 -10.12594 -10.12349 -10.12345
  Beta  occ. eigenvalues --   -1.34876  -1.34870  -1.34859  -1.34818  -1.34655
  Beta  occ. eigenvalues --   -1.34633  -1.34456  -1.34440  -1.34284  -1.34267
  Beta  occ. eigenvalues --   -1.04512  -1.04324  -1.04031  -1.03710  -1.03110
  Beta  occ. eigenvalues --   -1.02721  -1.02171  -1.01599  -1.01027  -1.00730
  Beta  occ. eigenvalues --   -0.96953  -0.96130  -0.95071  -0.93884  -0.92704
  Beta  occ. eigenvalues --   -0.91108  -0.90690  -0.90622  -0.90504  -0.90456
  Beta  occ. eigenvalues --   -0.89995  -0.89820  -0.89739  -0.89641  -0.89543
  Beta  occ. eigenvalues --   -0.89477  -0.89199  -0.87928  -0.86482  -0.85379
  Beta  occ. eigenvalues --   -0.81101  -0.79894  -0.78312  -0.78228  -0.77878
  Beta  occ. eigenvalues --   -0.77658  -0.77248  -0.76832  -0.76285  -0.76014
  Beta  occ. eigenvalues --   -0.75417  -0.75102  -0.74573  -0.74507  -0.74179
  Beta  occ. eigenvalues --   -0.73869  -0.73464  -0.73117  -0.72721  -0.72576
  Beta  occ. eigenvalues --   -0.69394  -0.69283  -0.68767  -0.68507  -0.67695
  Beta  occ. eigenvalues --   -0.67601  -0.66108  -0.65452  -0.65145  -0.64947
  Beta  occ. eigenvalues --   -0.64671  -0.64385  -0.63929  -0.63691  -0.63556
  Beta  occ. eigenvalues --   -0.62984  -0.62879  -0.62792  -0.62683  -0.62411
  Beta  occ. eigenvalues --   -0.62152  -0.61852  -0.61688  -0.61491  -0.61476
  Beta  occ. eigenvalues --   -0.61051  -0.60553  -0.60070  -0.59922  -0.59780
  Beta  occ. eigenvalues --   -0.59671  -0.59642  -0.59571  -0.59543  -0.59343
  Beta  occ. eigenvalues --   -0.59302  -0.59106  -0.58725  -0.58632  -0.58055
  Beta  occ. eigenvalues --   -0.57587  -0.56990  -0.56741  -0.56590  -0.56353
  Beta  occ. eigenvalues --   -0.56337  -0.56215  -0.56139  -0.55965  -0.55679
  Beta  occ. eigenvalues --   -0.55485  -0.54717  -0.53780  -0.53282  -0.53151
  Beta  occ. eigenvalues --   -0.52901  -0.52830  -0.52690  -0.52617  -0.52338
  Beta  occ. eigenvalues --   -0.52193  -0.51810  -0.51431  -0.51362  -0.51141
  Beta  occ. eigenvalues --   -0.50862  -0.50723  -0.50527  -0.50255  -0.50139
  Beta  occ. eigenvalues --   -0.50101  -0.49797  -0.49468  -0.49294  -0.49183
  Beta  occ. eigenvalues --   -0.48912  -0.48642  -0.48639  -0.48243  -0.48041
  Beta  occ. eigenvalues --   -0.47959  -0.47916  -0.47750  -0.47503  -0.47117
  Beta  occ. eigenvalues --   -0.46685  -0.46380  -0.45892  -0.44993  -0.44796
  Beta  occ. eigenvalues --   -0.44721  -0.41784  -0.41047  -0.40337  -0.38953
  Beta  occ. eigenvalues --   -0.37622  -0.37013  -0.36637  -0.36477  -0.36326
  Beta  occ. eigenvalues --   -0.36288  -0.36212  -0.36026  -0.35991  -0.35889
  Beta  occ. eigenvalues --   -0.35775  -0.35291  -0.34297  -0.32988  -0.32205
  Beta  occ. eigenvalues --   -0.31568
  Beta virt. eigenvalues --    0.00522   0.01429   0.02379   0.03963   0.05793
  Beta virt. eigenvalues --    0.06240   0.06322   0.06646   0.06852   0.06908
  Beta virt. eigenvalues --    0.06982   0.07061   0.07174   0.07229   0.07554

 Mulliken charges and spin densities:
               1          2
     1  C    0.013414  -0.000000
     2  C   -0.003699  -0.000000
     3  C    0.098465   0.000000
     4  F   -0.130688   0.000000
     5  C   -0.056081  -0.000000
     6  C    0.022638   0.000000
     7  C    0.007281   0.000000
     8  C   -0.049151   0.000000
     9  C    0.036285   0.000000
    10  C    0.000722  -0.000000
    11  C    0.008178  -0.000000
    12  C   -0.003846   0.000000
    13  C    0.108129  -0.000000
    14  F   -0.127490  -0.000000
    15  C    0.009070   0.000000
    16  C   -0.006202  -0.000000
    17  C    0.128142   0.000000
    18  F   -0.120627  -0.000000
    19  C   -0.061700  -0.000000
    20  C    0.024893   0.000000
    21  C    0.001780   0.000000
    22  C   -0.061524  -0.000000
    23  C    0.025119  -0.000000
    24  C    0.001780   0.000000
    25  C    0.008744  -0.000000
    26  C   -0.006300   0.000000
    27  C    0.128272  -0.000000
    28  F   -0.120351   0.000000
    29  C    0.008356  -0.000000
    30  C   -0.002554   0.000000
    31  C    0.106890  -0.000000
    32  F   -0.127401   0.000000
    33  C   -0.048912   0.000000
    34  C    0.033864  -0.000000
    35  C    0.001471   0.000000
    36  C   -0.048868  -0.000000
    37  C    0.033941  -0.000000
    38  C    0.001964   0.000000
    39  C    0.009644   0.000000
    40  C   -0.003440  -0.000000
    41  C    0.106498   0.000000
    42  F   -0.128324   0.000000
    43  C    0.006691  -0.000000
    44  C   -0.005837  -0.000000
    45  C    0.129782  -0.000000
    46  F   -0.120301   0.000000
    47  C   -0.064330   0.000000
    48  C    0.026458   0.000000
    49  C    0.002057   0.000000
    50  C   -0.062243   0.000000
    51  C    0.025358  -0.000000
    52  C    0.001275   0.000000
    53  C    0.009359  -0.000000
    54  C   -0.006699   0.000000
    55  C    0.128480  -0.000000
    56  F   -0.120171   0.000000
    57  C    0.008688  -0.000000
    58  C   -0.005327   0.000000
    59  C    0.107866   0.000000
    60  F   -0.128219   0.000000
    61  C   -0.049128  -0.000000
    62  C    0.036549   0.000000
    63  C    0.001237   0.000000
    64  C   -0.056198   0.000000
    65  C    0.022708  -0.000000
    66  C    0.007192   0.000000
    67  C    0.013404  -0.000000
    68  C   -0.003666   0.000000
    69  C    0.098745   0.000000
    70  F   -0.130125   0.000000
    71  H    0.013162   0.000000
    72  H    0.020624   0.000000
    73  H    0.008761   0.000000
    74  H    0.008337   0.000000
    75  H    0.009412   0.000000
    76  H    0.000277   0.000000
    77  H    0.016555   0.000000
    78  H    0.015943  -0.000000
    79  H    0.005016   0.000000
    80  H    0.003228  -0.000000
    81  H    0.005358  -0.000000
    82  H    0.003192  -0.000000
    83  H    0.015872  -0.000000
    84  H    0.017333   0.000000
    85  H    0.009290  -0.000000
    86  H    0.000763  -0.000000
    87  H    0.010385  -0.000000
    88  H    0.002587   0.000000
    89  H    0.015736   0.000000
    90  H    0.017334  -0.000000
    91  H    0.005415  -0.000000
    92  H    0.001579   0.000000
    93  H    0.005138  -0.000000
    94  H    0.001859   0.000000
    95  H    0.017395   0.000000
    96  H    0.013786  -0.000000
    97  H    0.010174  -0.000000
    98  H    0.003257  -0.000000
    99  H    0.008134  -0.000000
   100  H    0.008051   0.000000
   101  H    0.013160   0.000000
   102  H    0.020901   0.000000
 Sum of Mulliken charges =  -0.00000   0.00000

 Dipole moment (field-independent basis, Debye):
    X=              0.0215    Y=              3.0818    Z=             -0.8464  Tot=              3.1959
 Quadrupole moment (field-independent basis, Debye-Ang):
   XX=           -296.3892   YY=           -376.4218   ZZ=           -394.1687
   XY=              7.1531   XZ=             40.0094   YZ=             -0.1555

 Normal termination of Gaussian 16 at Fri Jul 24 23:35:27 2020.
