 Gaussian 16, Revision A.03,
 Gaussian 16:  EM64L-G16RevA.03 25-Dec-2016

 ---------------------------------------------------------------
 #P uLC-wPBE/cc-pVDZ iop(3/107=0416500000, 3/108=0416500000) opt
 ---------------------------------------------------------------

 --------------
 H23 C56 S14 F7
 --------------
 Symbolic Z-matrix:
 Charge =  0 Multiplicity = 1

 SCF Done:  E(ULC-wPBE) =  -8417.66517869     A.U. after   17 cycles
 SCF Done:  E(ULC-wPBE) =  -8417.74649426     A.U. after   13 cycles
 SCF Done:  E(ULC-wPBE) =  -8417.81693894     A.U. after   14 cycles
 SCF Done:  E(ULC-wPBE) =  -8417.83263513     A.U. after   13 cycles
 SCF Done:  E(ULC-wPBE) =  -8417.83540875     A.U. after   13 cycles
 SCF Done:  E(ULC-wPBE) =  -8417.83581741     A.U. after   12 cycles
 SCF Done:  E(ULC-wPBE) =  -8417.83612213     A.U. after   12 cycles
 SCF Done:  E(ULC-wPBE) =  -8417.83650404     A.U. after   15 cycles
 SCF Done:  E(ULC-wPBE) =  -8417.83671419     A.U. after   12 cycles
 SCF Done:  E(ULC-wPBE) =  -8417.83683620     A.U. after   11 cycles
 SCF Done:  E(ULC-wPBE) =  -8417.83754428     A.U. after   11 cycles
 SCF Done:  E(ULC-wPBE) =  -8417.83754657     A.U. after   10 cycles
 SCF Done:  E(ULC-wPBE) =  -8417.83754888     A.U. after   11 cycles
 SCF Done:  E(ULC-wPBE) =  -8417.83754976     A.U. after   11 cycles
 SCF Done:  E(ULC-wPBE) =  -8417.83755017     A.U. after   11 cycles
 SCF Done:  E(ULC-wPBE) =  -8417.83755044     A.U. after   10 cycles
 SCF Done:  E(ULC-wPBE) =  -8417.83755033     A.U. after    7 cycles
 SCF Done:  E(ULC-wPBE) =  -8417.83755038     A.U. after    7 cycles
 SCF Done:  E(ULC-wPBE) =  -8417.83755044     A.U. after    6 cycles
 SCF Done:  E(ULC-wPBE) =  -8417.83755030     A.U. after    6 cycles
 Optimization completed.
    -- Stationary point found.

                         Standard orientation:
 ---------------------------------------------------------------------
 Center     Atomic      Atomic             Coordinates (Angstroms)
 Number     Number       Type             X           Y           Z
 ---------------------------------------------------------------------
      1          6           0      -25.412178   -3.202117   -0.624300
      2          6           0      -25.788325   -1.932973   -0.315985
      3          6           0      -24.682883   -1.096622    0.002794
      4          6           0      -23.485706   -1.753146   -0.070838
      5         16           0      -23.715814   -3.403818   -0.520958
      6          6           0      -22.156782   -1.217257    0.192203
      7          6           0      -21.828096   -0.087820    0.881852
      8          9           0      -22.738223    0.717851    1.437381
      9          6           0      -20.442725    0.176611    0.989412
     10          6           0      -19.701252   -0.780557    0.359904
     11         16           0      -20.709291   -1.971958   -0.374451
     12          6           0      -18.250926   -0.876316    0.250400
     13          6           0      -17.487125   -1.995454    0.075505
     14          6           0      -16.100486   -1.710946    0.020473
     15          6           0      -15.820375   -0.378573    0.156959
     16         16           0      -17.271763    0.538846    0.338481
     17          6           0      -14.512459    0.256743    0.156694
     18          6           0      -14.198368    1.578128    0.274186
     19          9           0      -15.126535    2.529076    0.414644
     20          6           0      -12.818637    1.884359    0.225985
     21          6           0      -12.065336    0.757591    0.069238
     22         16           0      -13.053144   -0.655920   -0.000367
     23          6           0      -10.615946    0.644723   -0.031846
     24          6           0       -9.883679   -0.331128   -0.646835
     25          6           0       -8.487624   -0.110157   -0.555286
     26          6           0       -8.169429    1.032938    0.126344
     27         16           0       -9.594203    1.839354    0.673885
     28          6           0       -6.842426    1.559769    0.402316
     29          6           0       -6.490908    2.712132    1.040939
     30          9           0       -7.393201    3.566590    1.532683
     31          6           0       -5.101680    2.956686    1.137697
     32          6           0       -4.380054    1.952173    0.561973
     33         16           0       -5.409390    0.724844   -0.081200
     34          6           0       -2.928024    1.841210    0.480965
     35          6           0       -2.012290    2.290391    1.389582
     36          6           0       -0.676691    2.026480    0.998838
     37          6           0       -0.587884    1.373004   -0.200364
     38         16           0       -2.155352    1.092542   -0.865876
     39          6           0        0.619561    0.947994   -0.890685
     40          6           0        0.743045    0.254652   -2.058274
     41          9           0       -0.312949   -0.149554   -2.770421
     42          6           0        2.068186   -0.025728   -2.463964
     43          6           0        2.975215    0.480190   -1.579330
     44         16           0        2.195030    1.294385   -0.272461
     45          6           0        4.429388    0.408134   -1.665725
     46          6           0        5.191450    0.404253   -2.799390
     47          6           0        6.578663    0.315613   -2.527522
     48          6           0        6.860656    0.259352   -1.189391
     49         16           0        5.411350    0.298754   -0.253201
     50          6           0        8.169430    0.167713   -0.562411
     51          6           0        8.487723    0.149845    0.763059
     52          9           0        7.564005    0.217974    1.725790
     53          6           0        9.868052    0.065173    1.058134
     54          6           0       10.616871    0.014676   -0.081398
     55         16           0        9.622461    0.054456   -1.491353
     56          6           0       12.066081   -0.069892   -0.208915
     57          6           0       12.850502    0.349705   -1.245910
     58          6           0       14.229210    0.115847   -1.021117
     59          6           0       14.482366   -0.477423    0.185771
     60         16           0       13.015776   -0.765222    1.049526
     61          6           0       15.775393   -0.854114    0.734219
     62          6           0       16.066778   -1.404587    1.947235
     63          9           0       15.126172   -1.690614    2.852418
     64          6           0       17.438309   -1.641475    2.196032
     65          6           0       18.207006   -1.266729    1.133083
     66         16           0       17.242082   -0.638181   -0.152703
     67          6           0       19.656429   -1.373539    1.009048
     68          6           0       20.464021   -2.333067    1.550027
     69          6           0       21.832603   -2.135077    1.242375
     70          6           0       22.053467   -1.031199    0.464863
     71         16           0       20.572517   -0.215621    0.119603
     72          6           0       23.328615   -0.539722   -0.037243
     73          6           0       23.577671    0.542560   -0.828174
     74          9           0       22.608884    1.348941   -1.273043
     75          6           0       24.941327    0.758600   -1.149759
     76          6           0       25.725958   -0.191237   -0.580212
     77         16           0       24.822325   -1.325453    0.329976
     78          1           0      -26.044090   -4.040111   -0.907114
     79          1           0      -26.823426   -1.596518   -0.318109
     80          1           0      -24.764456   -0.046713    0.271921
     81          1           0      -20.033240    1.025581    1.532244
     82          1           0      -17.904688   -2.998690    0.007197
     83          1           0      -15.332984   -2.472620   -0.108110
     84          1           0      -12.424262    2.896184    0.284213
     85          1           0      -10.331728   -1.174554   -1.169744
     86          1           0       -7.741726   -0.773476   -0.990401
     87          1           0       -4.675302    3.848693    1.589328
     88          1           0       -2.289799    2.773339    2.324513
     89          1           0        0.192367    2.301109    1.594762
     90          1           0        2.319411   -0.597817   -3.353366
     91          1           0        4.770229    0.488518   -3.799300
     92          1           0        7.346023    0.306252   -3.300063
     93          1           0       10.268572    0.064728    2.069210
     94          1           0       12.454392    0.832683   -2.137760
     95          1           0       15.010890    0.388510   -1.728428
     96          1           0       17.822240   -2.043934    3.129872
     97          1           0       20.084664   -3.171401    2.131115
     98          1           0       22.628894   -2.797860    1.577648
     99          1           0       25.292756    1.579261   -1.769981
    100          1           0       26.806480   -0.288040   -0.646523
 ---------------------------------------------------------------------

 Alpha  occ. eigenvalues --  -10.13673 -10.13512  -7.95861  -7.95835  -7.95774
 Alpha  occ. eigenvalues --   -7.95716  -7.95620  -7.95419  -7.95334  -7.95243
 Alpha  occ. eigenvalues --   -7.95215  -7.95123  -7.94988  -7.94964  -7.94673
 Alpha  occ. eigenvalues --   -7.94010  -5.97342  -5.97304  -5.97258  -5.97197
 Alpha  occ. eigenvalues --   -5.97101  -5.96904  -5.96806  -5.96804  -5.96764
 Alpha  occ. eigenvalues --   -5.96722  -5.96716  -5.96686  -5.96661  -5.96593
 Alpha  occ. eigenvalues --   -5.96564  -5.96467  -5.96437  -5.96367  -5.96313
 Alpha  occ. eigenvalues --   -5.96310  -5.96249  -5.96218  -5.96168  -5.96160
 Alpha  occ. eigenvalues --   -5.96147  -5.96131  -5.96071  -5.96039  -5.95932
 Alpha  occ. eigenvalues --   -5.95882  -5.95864  -5.95831  -5.95732  -5.95710
 Alpha  occ. eigenvalues --   -5.95618  -5.95592  -5.95460  -5.95453  -5.95443
 Alpha  occ. eigenvalues --   -5.95162  -5.94920  -5.94525  -1.37735  -1.37652
 Alpha  occ. eigenvalues --   -1.37636  -1.37574  -1.37486  -1.37265  -1.36580
 Alpha  occ. eigenvalues --   -1.09391  -1.09201  -1.08982  -1.08724  -1.08432
 Alpha  occ. eigenvalues --   -1.08099  -1.07931  -1.07133  -1.06687  -1.06247
 Alpha  occ. eigenvalues --   -1.05824  -1.05452  -1.05153  -1.04583  -0.97500
 Alpha  occ. eigenvalues --   -0.96979  -0.96285  -0.95459  -0.94541  -0.93657
 Alpha  occ. eigenvalues --   -0.92889  -0.92161  -0.92030  -0.91751  -0.91523
 Alpha  occ. eigenvalues --   -0.91330  -0.91223  -0.91049  -0.90715  -0.90610
 Alpha  occ. eigenvalues --   -0.90307  -0.90247  -0.89962  -0.89508  -0.89458
 Alpha  occ. eigenvalues --   -0.88937  -0.88389  -0.87565  -0.86457  -0.85386
 Alpha  occ. eigenvalues --   -0.84657  -0.84064  -0.78954  -0.78405  -0.77864
 Alpha  occ. eigenvalues --   -0.77483  -0.77035  -0.76710  -0.75844  -0.74980
 Alpha  occ. eigenvalues --   -0.74765  -0.73996  -0.73837  -0.73298  -0.72931
 Alpha  occ. eigenvalues --   -0.72737  -0.71414  -0.71233  -0.71070  -0.71028
 Alpha  occ. eigenvalues --   -0.70653  -0.70465  -0.70067  -0.69612  -0.68881
 Alpha  occ. eigenvalues --   -0.68593  -0.68234  -0.67995  -0.67900  -0.67798
 Alpha  occ. eigenvalues --   -0.67689  -0.67385  -0.66960  -0.66653  -0.66275
 Alpha  occ. eigenvalues --   -0.65370  -0.64881  -0.62939  -0.62792  -0.62482
 Alpha  occ. eigenvalues --   -0.62407  -0.62323  -0.62281  -0.62227  -0.62169
 Alpha  occ. eigenvalues --   -0.62101  -0.62083  -0.61981  -0.61949  -0.61792
 Alpha  occ. eigenvalues --   -0.61280  -0.60243  -0.59843  -0.59602  -0.59292
 Alpha  occ. eigenvalues --   -0.59099  -0.58842  -0.58779  -0.58043  -0.57476
 Alpha  occ. eigenvalues --   -0.57265  -0.56921  -0.56486  -0.56150  -0.56118
 Alpha  occ. eigenvalues --   -0.55938  -0.55704  -0.55553  -0.55114  -0.55050
 Alpha  occ. eigenvalues --   -0.54620  -0.54545  -0.54435  -0.54034  -0.53973
 Alpha  occ. eigenvalues --   -0.53888  -0.53733  -0.53628  -0.53570  -0.53536
 Alpha  occ. eigenvalues --   -0.53445  -0.53055  -0.52690  -0.52463  -0.52363
 Alpha  occ. eigenvalues --   -0.52176  -0.51880  -0.51545  -0.51358  -0.51132
 Alpha  occ. eigenvalues --   -0.51012  -0.50843  -0.50677  -0.50546  -0.50440
 Alpha  occ. eigenvalues --   -0.50313  -0.50103  -0.49932  -0.49889  -0.49804
 Alpha  occ. eigenvalues --   -0.49359  -0.49231  -0.48858  -0.48506  -0.48239
 Alpha  occ. eigenvalues --   -0.47989  -0.47731  -0.47488  -0.46750  -0.46635
 Alpha  occ. eigenvalues --   -0.46200  -0.46113  -0.45978  -0.45848  -0.45454
 Alpha  occ. eigenvalues --   -0.44357  -0.43781  -0.42754  -0.41640  -0.40428
 Alpha  occ. eigenvalues --   -0.39112  -0.38152  -0.37842  -0.37759  -0.37672
 Alpha  occ. eigenvalues --   -0.37597  -0.37515  -0.37299  -0.37244  -0.37188
 Alpha  occ. eigenvalues --   -0.37139  -0.37101  -0.36914  -0.36796  -0.36608
 Alpha  occ. eigenvalues --   -0.36082  -0.35012  -0.33753  -0.32257  -0.30895
 Alpha  occ. eigenvalues --   -0.29634  -0.28540  -0.27870
 Alpha virt. eigenvalues --   -0.01938  -0.01277  -0.00255   0.00871   0.02057
 Alpha virt. eigenvalues --    0.03368   0.04463   0.05976   0.06947   0.08021
 Alpha virt. eigenvalues --    0.08697   0.09275   0.09452   0.09806   0.09840

  Beta  occ. eigenvalues --  -88.35056 -88.35018 -88.34965 -88.34911 -88.34814
  Beta  occ. eigenvalues --  -88.34611 -88.34540 -88.34445 -88.34422 -88.34329
  Beta  occ. eigenvalues --  -88.34185 -88.34166 -88.33876 -88.33169 -24.53094
  Beta  occ. eigenvalues --  -24.53023 -24.52981 -24.52929 -24.52847 -24.52620
  Beta  occ. eigenvalues --  -24.51954 -10.23171 -10.23091 -10.23053 -10.23015
  Beta  occ. eigenvalues --  -10.22922 -10.22713 -10.22119 -10.19702 -10.19657
  Beta  occ. eigenvalues --  -10.19557 -10.19461 -10.19304 -10.19135 -10.19097
  Beta  occ. eigenvalues --  -10.19039 -10.18935 -10.18819 -10.18776 -10.18673
  Beta  occ. eigenvalues --  -10.18652 -10.18594 -10.18578 -10.18548 -10.18536
  Beta  occ. eigenvalues --  -10.18524 -10.18461 -10.18431 -10.18365 -10.18327
  Beta  occ. eigenvalues --  -10.18267 -10.18241 -10.17975 -10.17715 -10.17579
  Beta  occ. eigenvalues --  -10.15991 -10.15704 -10.15655 -10.15566 -10.15512
  Beta  occ. eigenvalues --  -10.15419 -10.15242 -10.15221 -10.15189 -10.15105
  Beta  occ. eigenvalues --  -10.15081 -10.15019 -10.14997 -10.14975 -10.14896
  Beta  occ. eigenvalues --  -10.14864 -10.14804 -10.14752 -10.14567 -10.14514
  Beta  occ. eigenvalues --  -10.13673 -10.13512  -7.95861  -7.95835  -7.95774
  Beta  occ. eigenvalues --   -7.95716  -7.95620  -7.95419  -7.95334  -7.95243
  Beta  occ. eigenvalues --   -7.95215  -7.95123  -7.94988  -7.94964  -7.94673
  Beta  occ. eigenvalues --   -7.94010  -5.97342  -5.97304  -5.97258  -5.97197
  Beta  occ. eigenvalues --   -5.97101  -5.96904  -5.96806  -5.96804  -5.96764
  Beta  occ. eigenvalues --   -5.96722  -5.96716  -5.96686  -5.96661  -5.96593
  Beta  occ. eigenvalues --   -5.96564  -5.96467  -5.96437  -5.96367  -5.96313
  Beta  occ. eigenvalues --   -5.96310  -5.96249  -5.96218  -5.96168  -5.96160
  Beta  occ. eigenvalues --   -5.96147  -5.96131  -5.96071  -5.96039  -5.95932
  Beta  occ. eigenvalues --   -5.95882  -5.95864  -5.95831  -5.95732  -5.95710
  Beta  occ. eigenvalues --   -5.95618  -5.95592  -5.95460  -5.95453  -5.95443
  Beta  occ. eigenvalues --   -5.95162  -5.94920  -5.94525  -1.37735  -1.37652
  Beta  occ. eigenvalues --   -1.37636  -1.37574  -1.37486  -1.37265  -1.36580
  Beta  occ. eigenvalues --   -1.09391  -1.09201  -1.08982  -1.08724  -1.08432
  Beta  occ. eigenvalues --   -1.08099  -1.07931  -1.07133  -1.06687  -1.06247
  Beta  occ. eigenvalues --   -1.05824  -1.05452  -1.05153  -1.04583  -0.97500
  Beta  occ. eigenvalues --   -0.96979  -0.96285  -0.95459  -0.94541  -0.93657
  Beta  occ. eigenvalues --   -0.92889  -0.92161  -0.92030  -0.91751  -0.91523
  Beta  occ. eigenvalues --   -0.91330  -0.91223  -0.91049  -0.90715  -0.90610
  Beta  occ. eigenvalues --   -0.90307  -0.90247  -0.89962  -0.89508  -0.89458
  Beta  occ. eigenvalues --   -0.88937  -0.88389  -0.87565  -0.86457  -0.85386
  Beta  occ. eigenvalues --   -0.84657  -0.84064  -0.78954  -0.78405  -0.77864
  Beta  occ. eigenvalues --   -0.77483  -0.77035  -0.76710  -0.75844  -0.74980
  Beta  occ. eigenvalues --   -0.74765  -0.73996  -0.73837  -0.73298  -0.72931
  Beta  occ. eigenvalues --   -0.72737  -0.71414  -0.71233  -0.71070  -0.71028
  Beta  occ. eigenvalues --   -0.70653  -0.70465  -0.70067  -0.69612  -0.68881
  Beta  occ. eigenvalues --   -0.68593  -0.68234  -0.67995  -0.67900  -0.67798
  Beta  occ. eigenvalues --   -0.67689  -0.67385  -0.66960  -0.66653  -0.66275
  Beta  occ. eigenvalues --   -0.65370  -0.64881  -0.62939  -0.62792  -0.62482
  Beta  occ. eigenvalues --   -0.62407  -0.62323  -0.62281  -0.62227  -0.62169
  Beta  occ. eigenvalues --   -0.62101  -0.62083  -0.61981  -0.61949  -0.61792
  Beta  occ. eigenvalues --   -0.61280  -0.60243  -0.59843  -0.59602  -0.59292
  Beta  occ. eigenvalues --   -0.59099  -0.58842  -0.58779  -0.58043  -0.57476
  Beta  occ. eigenvalues --   -0.57265  -0.56921  -0.56486  -0.56150  -0.56118
  Beta  occ. eigenvalues --   -0.55938  -0.55704  -0.55553  -0.55114  -0.55050
  Beta  occ. eigenvalues --   -0.54620  -0.54545  -0.54435  -0.54034  -0.53973
  Beta  occ. eigenvalues --   -0.53888  -0.53733  -0.53628  -0.53570  -0.53536
  Beta  occ. eigenvalues --   -0.53445  -0.53055  -0.52690  -0.52463  -0.52363
  Beta  occ. eigenvalues --   -0.52176  -0.51880  -0.51545  -0.51358  -0.51132
  Beta  occ. eigenvalues --   -0.51012  -0.50843  -0.50677  -0.50546  -0.50440
  Beta  occ. eigenvalues --   -0.50313  -0.50103  -0.49932  -0.49889  -0.49804
  Beta  occ. eigenvalues --   -0.49359  -0.49231  -0.48858  -0.48506  -0.48239
  Beta  occ. eigenvalues --   -0.47989  -0.47731  -0.47488  -0.46750  -0.46635
  Beta  occ. eigenvalues --   -0.46200  -0.46113  -0.45978  -0.45848  -0.45454
  Beta  occ. eigenvalues --   -0.44357  -0.43781  -0.42754  -0.41640  -0.40428
  Beta  occ. eigenvalues --   -0.39112  -0.38152  -0.37842  -0.37759  -0.37672
  Beta  occ. eigenvalues --   -0.37597  -0.37515  -0.37299  -0.37244  -0.37188
  Beta  occ. eigenvalues --   -0.37139  -0.37101  -0.36914  -0.36796  -0.36608
  Beta  occ. eigenvalues --   -0.36082  -0.35012  -0.33753  -0.32257  -0.30895
  Beta  occ. eigenvalues --   -0.29634  -0.28540  -0.27870
  Beta virt. eigenvalues --   -0.01938  -0.01277  -0.00255   0.00871   0.02057
  Beta virt. eigenvalues --    0.03368   0.04463   0.05976   0.06947   0.08021
  Beta virt. eigenvalues --    0.08697   0.09275   0.09452   0.09806   0.09840

 Mulliken charges and spin densities:
               1          2
     1  C   -0.147884  -0.000000
     2  C    0.050186   0.000000
     3  C   -0.017588   0.000000
     4  C   -0.119504  -0.000000
     5  S    0.159231   0.000000
     6  C   -0.138613   0.000000
     7  C    0.120594  -0.000000
     8  F   -0.123852  -0.000000
     9  C    0.026109   0.000000
    10  C   -0.127471  -0.000000
    11  S    0.191957   0.000000
    12  C   -0.132600  -0.000000
    13  C    0.027639  -0.000000
    14  C    0.009154  -0.000000
    15  C   -0.113958   0.000000
    16  S    0.190840   0.000000
    17  C   -0.143807  -0.000000
    18  C    0.116466  -0.000000
    19  F   -0.120347   0.000000
    20  C    0.033595   0.000000
    21  C   -0.122980  -0.000000
    22  S    0.181072   0.000000
    23  C   -0.133765   0.000000
    24  C    0.026799   0.000000
    25  C    0.010720   0.000000
    26  C   -0.114451   0.000000
    27  S    0.192029  -0.000000
    28  C   -0.146409  -0.000000
    29  C    0.117947  -0.000000
    30  F   -0.120955   0.000000
    31  C    0.035200   0.000000
    32  C   -0.123104  -0.000000
    33  S    0.193089   0.000000
    34  C   -0.137186  -0.000000
    35  C    0.031304  -0.000000
    36  C    0.010448  -0.000000
    37  C   -0.115784  -0.000000
    38  S    0.198591   0.000000
    39  C   -0.148155   0.000000
    40  C    0.118684  -0.000000
    41  F   -0.120485   0.000000
    42  C    0.034902   0.000000
    43  C   -0.123081  -0.000000
    44  S    0.193089   0.000000
    45  C   -0.137206  -0.000000
    46  C    0.031462   0.000000
    47  C    0.009589   0.000000
    48  C   -0.114486   0.000000
    49  S    0.199504   0.000000
    50  C   -0.146478  -0.000000
    51  C    0.117843  -0.000000
    52  F   -0.119492  -0.000000
    53  C    0.033512   0.000000
    54  C   -0.122446  -0.000000
    55  S    0.181579  -0.000000
    56  C   -0.134065   0.000000
    57  C    0.026988   0.000000
    58  C    0.010758  -0.000000
    59  C   -0.114090   0.000000
    60  S    0.192625  -0.000000
    61  C   -0.146754  -0.000000
    62  C    0.118088   0.000000
    63  F   -0.120809   0.000000
    64  C    0.035315   0.000000
    65  C   -0.122152  -0.000000
    66  S    0.193297   0.000000
    67  C   -0.137841   0.000000
    68  C    0.029687   0.000000
    69  C    0.012939   0.000000
    70  C   -0.106058   0.000000
    71  S    0.198657  -0.000000
    72  C   -0.153593  -0.000000
    73  C    0.098591   0.000000
    74  F   -0.122419  -0.000000
    75  C    0.047952  -0.000000
    76  C   -0.135461  -0.000000
    77  S    0.173445  -0.000000
    78  H    0.045160   0.000000
    79  H    0.014720   0.000000
    80  H    0.017835   0.000000
    81  H    0.030252   0.000000
    82  H    0.018040   0.000000
    83  H    0.018905  -0.000000
    84  H    0.031718   0.000000
    85  H    0.018457  -0.000000
    86  H    0.021002  -0.000000
    87  H    0.024144   0.000000
    88  H    0.011737   0.000000
    89  H    0.021703   0.000000
    90  H    0.024134  -0.000000
    91  H    0.011400   0.000000
    92  H    0.020057   0.000000
    93  H    0.032367  -0.000000
    94  H    0.018466   0.000000
    95  H    0.021225   0.000000
    96  H    0.024282   0.000000
    97  H    0.011540   0.000000
    98  H    0.020009   0.000000
    99  H    0.030820   0.000000
   100  H    0.055879   0.000000
 Sum of Mulliken charges =  -0.00000   0.00000

 Dipole moment (field-independent basis, Debye):
    X=             11.0450    Y=             -1.3354    Z=             -1.3107  Tot=             11.2024
 Quadrupole moment (field-independent basis, Debye-Ang):
   XX=           -364.7630   YY=           -516.7923   ZZ=           -518.3515
   XY=              8.8462   XZ=              0.4653   YZ=              2.5942

 Normal termination of Gaussian 16 at Sat Jul 25 07:18:20 2020.
