 Gaussian 16, Revision A.03,
 Gaussian 16:  EM64L-G16RevA.03 25-Dec-2016

 ---------------------------------------------------------------
 #P uLC-wPBE/cc-pVDZ iop(3/107=0479700000, 3/108=0479700000) opt
 ---------------------------------------------------------------

 -------------------
 H32 C50 S5 N5 O5 F5
 -------------------
 Symbolic Z-matrix:
 Charge =  0 Multiplicity = 1

 SCF Done:  E(ULC-wPBE) =  -5061.88650784     A.U. after   17 cycles
 SCF Done:  E(ULC-wPBE) =  -5061.97917697     A.U. after   14 cycles
 SCF Done:  E(ULC-wPBE) =  -5062.06854137     A.U. after   15 cycles
 SCF Done:  E(ULC-wPBE) =  -5062.09331518     A.U. after   15 cycles
 SCF Done:  E(ULC-wPBE) =  -5062.09926921     A.U. after   14 cycles
 SCF Done:  E(ULC-wPBE) =  -5062.10082212     A.U. after   14 cycles
 SCF Done:  E(ULC-wPBE) =  -5062.10212645     A.U. after   15 cycles
 SCF Done:  E(ULC-wPBE) =  -5062.10315090     A.U. after   14 cycles
 SCF Done:  E(ULC-wPBE) =  -5062.10368438     A.U. after   14 cycles
 SCF Done:  E(ULC-wPBE) =  -5062.10411933     A.U. after   13 cycles
 SCF Done:  E(ULC-wPBE) =  -5062.10459221     A.U. after   11 cycles
 SCF Done:  E(ULC-wPBE) =  -5062.10459388     A.U. after   11 cycles
 SCF Done:  E(ULC-wPBE) =  -5062.10459543     A.U. after   11 cycles
 SCF Done:  E(ULC-wPBE) =  -5062.10459640     A.U. after   11 cycles
 SCF Done:  E(ULC-wPBE) =  -5062.10459678     A.U. after   10 cycles
 SCF Done:  E(ULC-wPBE) =  -5062.10459684     A.U. after    7 cycles
 SCF Done:  E(ULC-wPBE) =  -5062.10459690     A.U. after    6 cycles
 SCF Done:  E(ULC-wPBE) =  -5062.10459702     A.U. after    7 cycles
 SCF Done:  E(ULC-wPBE) =  -5062.10459710     A.U. after    6 cycles
 SCF Done:  E(ULC-wPBE) =  -5062.10459706     A.U. after    6 cycles
 Optimization completed.
    -- Stationary point found.

                         Standard orientation:
 ---------------------------------------------------------------------
 Center     Atomic      Atomic             Coordinates (Angstroms)
 Number     Number       Type             X           Y           Z
 ---------------------------------------------------------------------
      1          6           0      -19.054784    2.276629    0.299711
      2          6           0      -17.951828    2.716448   -0.412102
      3          7           0      -16.795630    2.074501   -0.430434
      4          6           0      -16.660744    0.948848    0.266463
      5          6           0      -17.710778    0.477699    1.049362
      6          9           0      -17.545576   -0.587198    1.830870
      7          6           0      -18.923284    1.128692    1.058574
      8          6           0      -15.352698    0.291197    0.209630
      9          6           0      -15.033775   -1.040011    0.174155
     10          8           0      -15.985704   -1.987776    0.179723
     11          6           0      -15.567315   -3.325479    0.249223
     12          6           0      -13.632141   -1.268151    0.082766
     13          6           0      -12.918454   -0.107705    0.028877
     14         16           0      -13.941634    1.261688    0.064687
     15          6           0      -11.461434    0.029844   -0.064825
     16          6           0      -10.784792    1.116088    0.482902
     17          7           0       -9.476523    1.277196    0.433751
     18          6           0       -8.718812    0.368323   -0.172421
     19          6           0       -9.324321   -0.752461   -0.738426
     20          9           0       -8.574332   -1.677747   -1.349291
     21          6           0      -10.682831   -0.931880   -0.696197
     22          6           0       -7.272012    0.594841   -0.218141
     23          6           0       -6.617947    1.801318   -0.125708
     24          8           0       -7.280402    2.962826   -0.066654
     25          6           0       -6.521291    4.140084    0.016760
     26          6           0       -5.201767    1.666206   -0.137084
     27          6           0       -4.799826    0.368528   -0.235310
     28         16           0       -6.131570   -0.695370   -0.323981
     29          6           0       -3.423574   -0.135843   -0.278247
     30          6           0       -2.398528    0.518043    0.400300
     31          7           0       -1.143987    0.111037    0.405195
     32          6           0       -0.801870   -0.989739   -0.260828
     33          6           0       -1.760701   -1.676494   -1.000033
     34          9           0       -1.414431   -2.714026   -1.756853
     35          6           0       -3.072300   -1.266669   -1.003742
     36          6           0        0.608027   -1.378433   -0.217620
     37          6           0        1.180298   -2.621803   -0.160378
     38          8           0        0.430894   -3.735191   -0.126440
     39          6           0        1.099755   -4.968797   -0.161252
     40          6           0        2.600632   -2.571352   -0.092724
     41          6           0        3.076106   -1.293608   -0.077989
     42         16           0        1.806476   -0.149336   -0.122329
     43          6           0        4.480004   -0.874174   -0.017151
     44          6           0        4.924728    0.306574   -0.604879
     45          7           0        6.177697    0.718631   -0.586698
     46          6           0        7.106344   -0.009482    0.025827
     47          6           0        6.738144   -1.209954    0.631694
     48          9           0        7.662027   -1.955113    1.249542
     49          6           0        5.439653   -1.649495    0.621514
     50          6           0        8.482384    0.493158    0.035668
     51          6           0        8.888357    1.800433   -0.098753
     52          8           0        8.012282    2.810239   -0.172059
     53          6           0        8.528185    4.109814   -0.286526
     54          6           0       10.303555    1.941223   -0.114449
     55          6           0       10.951290    0.748964    0.006965
     56         16           0        9.852586   -0.549096    0.149116
     57          6           0       12.400941    0.528901    0.032630
     58          6           0       12.978591   -0.507594    0.760049
     59          7           0       14.278998   -0.722129    0.828017
     60          6           0       15.117979    0.080119    0.177836
     61          6           0       14.615518    1.110003   -0.613529
     62          9           0       15.433169    1.850648   -1.357730
     63          6           0       13.264791    1.348581   -0.682532
     64          6           0       16.546425   -0.217758    0.289126
     65          6           0       17.616667    0.632341    0.378427
     66          8           0       17.451064    1.966204    0.390632
     67          6           0       18.607947    2.760127    0.392871
     68          6           0       18.858190   -0.056967    0.510889
     69          6           0       18.684968   -1.402712    0.538324
     70         16           0       17.053164   -1.856224    0.421646
     71          1           0      -19.990371    2.829346    0.274873
     72          1           0      -18.000011    3.633032   -1.000330
     73          1           0      -19.731270    0.737063    1.671870
     74          1           0      -16.475357   -3.930778    0.291113
     75          1           0      -14.988292   -3.614586   -0.638369
     76          1           0      -14.970806   -3.514743    1.151583
     77          1           0      -13.168560   -2.248900    0.076361
     78          1           0      -11.341258    1.893532    1.008583
     79          1           0      -11.115542   -1.805696   -1.176552
     80          1           0       -7.237622    4.962688    0.068384
     81          1           0       -5.897219    4.155082    0.920356
     82          1           0       -5.885073    4.276493   -0.868288
     83          1           0       -4.506368    2.497691   -0.108142
     84          1           0       -2.614794    1.411972    0.985364
     85          1           0       -3.795394   -1.816600   -1.602201
     86          1           0        1.733196   -5.109721    0.724956
     87          1           0        0.325443   -5.738817   -0.168533
     88          1           0        1.711572   -5.069659   -1.067487
     89          1           0        3.245966   -3.443115   -0.074825
     90          1           0        4.220205    0.946770   -1.138020
     91          1           0        5.191890   -2.576725    1.131817
     92          1           0        9.138755    4.382623    0.584995
     93          1           0        7.665868    4.777870   -0.338213
     94          1           0        9.124672    4.228780   -1.201103
     95          1           0       10.825056    2.889927   -0.179244
     96          1           0       12.349587   -1.192681    1.330024
     97          1           0       12.902048    2.147062   -1.325010
     98          1           0       19.198185    2.612181    1.307384
     99          1           0       18.270155    3.798067    0.354233
    100          1           0       19.237704    2.557396   -0.483688
    101          1           0       19.827755    0.422186    0.592360
    102          1           0       19.458851   -2.157237    0.632056
 ---------------------------------------------------------------------

 The electronic state is 1-A.
 Alpha  occ. eigenvalues --  -88.36862 -88.36769 -88.36613 -88.36511 -88.36042
 Alpha  occ. eigenvalues --  -24.55485 -24.55417 -24.54652 -24.54503 -24.54433
 Alpha  occ. eigenvalues --  -19.05762 -19.05667 -19.05403 -19.05342 -19.05342
 Alpha  occ. eigenvalues --  -14.26866 -14.26566 -14.26446 -14.26266 -14.26257
 Alpha  occ. eigenvalues --  -10.26079 -10.26074 -10.26045 -10.25868 -10.25745
 Alpha  occ. eigenvalues --  -10.23653 -10.23606 -10.23604 -10.23460 -10.23070
 Alpha  occ. eigenvalues --  -10.22565 -10.22550 -10.22472 -10.22230 -10.22227
 Alpha  occ. eigenvalues --  -10.22207 -10.22182 -10.21968 -10.21901 -10.21850
 Alpha  occ. eigenvalues --  -10.21439 -10.21368 -10.21325 -10.21213 -10.20786
 Alpha  occ. eigenvalues --  -10.20520 -10.20472 -10.20459 -10.20289 -10.20184
 Alpha  occ. eigenvalues --  -10.19987 -10.19949 -10.19946 -10.19768 -10.19461
 Alpha  occ. eigenvalues --  -10.19453 -10.19421 -10.19328 -10.19299 -10.19248
 Alpha  occ. eigenvalues --  -10.19181 -10.19122 -10.18993 -10.18569 -10.18323
 Alpha  occ. eigenvalues --  -10.17595 -10.17581 -10.17527 -10.17521 -10.17063
 Alpha  occ. eigenvalues --   -7.97789  -7.97691  -7.97523  -7.97420  -7.96967
 Alpha  occ. eigenvalues --   -5.98962  -5.98865  -5.98692  -5.98589  -5.98402
 Alpha  occ. eigenvalues --   -5.98302  -5.98141  -5.98127  -5.98037  -5.97968
 Alpha  occ. eigenvalues --   -5.97872  -5.97707  -5.97606  -5.97574  -5.97169
 Alpha  occ. eigenvalues --   -1.40309  -1.40258  -1.39742  -1.39568  -1.39481
 Alpha  occ. eigenvalues --   -1.25683  -1.25580  -1.25453  -1.25448  -1.25281
 Alpha  occ. eigenvalues --   -1.15269  -1.14997  -1.14917  -1.14877  -1.14712
 Alpha  occ. eigenvalues --   -1.09333  -1.09087  -1.08777  -1.08566  -1.07724
 Alpha  occ. eigenvalues --   -1.02084  -1.01606  -1.01077  -1.00649  -0.99704
 Alpha  occ. eigenvalues --   -0.97848  -0.97581  -0.97299  -0.96813  -0.96247
 Alpha  occ. eigenvalues --   -0.94282  -0.93591  -0.93186  -0.93051  -0.92652
 Alpha  occ. eigenvalues --   -0.92304  -0.91832  -0.91226  -0.90529  -0.90181
 Alpha  occ. eigenvalues --   -0.87327  -0.87123  -0.86657  -0.85904  -0.84690
 Alpha  occ. eigenvalues --   -0.83842  -0.82364  -0.81685  -0.81652  -0.81378
 Alpha  occ. eigenvalues --   -0.81127  -0.80650  -0.80342  -0.79311  -0.78687
 Alpha  occ. eigenvalues --   -0.74413  -0.74254  -0.73744  -0.73637  -0.73498
 Alpha  occ. eigenvalues --   -0.72775  -0.72499  -0.72349  -0.71935  -0.71269
 Alpha  occ. eigenvalues --   -0.70948  -0.70821  -0.70363  -0.70007  -0.69476
 Alpha  occ. eigenvalues --   -0.68507  -0.68052  -0.67820  -0.67710  -0.67578
 Alpha  occ. eigenvalues --   -0.67325  -0.66864  -0.66588  -0.66429  -0.66338
 Alpha  occ. eigenvalues --   -0.63948  -0.63903  -0.63768  -0.63554  -0.63428
 Alpha  occ. eigenvalues --   -0.63378  -0.63226  -0.63107  -0.63028  -0.62975
 Alpha  occ. eigenvalues --   -0.62871  -0.62856  -0.62733  -0.62603  -0.62567
 Alpha  occ. eigenvalues --   -0.61029  -0.60867  -0.60513  -0.60208  -0.59860
 Alpha  occ. eigenvalues --   -0.58389  -0.58355  -0.58144  -0.58062  -0.57765
 Alpha  occ. eigenvalues --   -0.57652  -0.57084  -0.57049  -0.56725  -0.56620
 Alpha  occ. eigenvalues --   -0.56364  -0.56213  -0.56069  -0.55834  -0.55767
 Alpha  occ. eigenvalues --   -0.55668  -0.55590  -0.55509  -0.55411  -0.55312
 Alpha  occ. eigenvalues --   -0.55243  -0.54625  -0.54294  -0.53918  -0.53719
 Alpha  occ. eigenvalues --   -0.53632  -0.53583  -0.52951  -0.52829  -0.52687
 Alpha  occ. eigenvalues --   -0.52322  -0.52071  -0.51480  -0.51233  -0.50779
 Alpha  occ. eigenvalues --   -0.50774  -0.48073  -0.47914  -0.47745  -0.47564
 Alpha  occ. eigenvalues --   -0.47539  -0.47475  -0.47348  -0.47192  -0.47122
 Alpha  occ. eigenvalues --   -0.46908  -0.46874  -0.46810  -0.46699  -0.46650
 Alpha  occ. eigenvalues --   -0.45926  -0.43851  -0.43293  -0.42483  -0.41688
 Alpha  occ. eigenvalues --   -0.41208  -0.40022  -0.39765  -0.39739  -0.39573
 Alpha  occ. eigenvalues --   -0.39387  -0.39129  -0.38987  -0.38805  -0.38511
 Alpha  occ. eigenvalues --   -0.37876  -0.36217  -0.35594  -0.35276  -0.35206
 Alpha  occ. eigenvalues --   -0.34977  -0.33017  -0.32236  -0.31229  -0.29693
 Alpha  occ. eigenvalues --   -0.28866
 Alpha virt. eigenvalues --   -0.00537   0.00482   0.02290   0.03771   0.05042
 Alpha virt. eigenvalues --    0.06204   0.06469   0.06599   0.06845   0.07367
 Alpha virt. eigenvalues --    0.07876   0.09545   0.10925   0.12315   0.12933

  Beta  occ. eigenvalues --  -88.36862 -88.36769 -88.36613 -88.36511 -88.36042
  Beta  occ. eigenvalues --  -24.55485 -24.55417 -24.54652 -24.54503 -24.54433
  Beta  occ. eigenvalues --  -19.05762 -19.05667 -19.05403 -19.05342 -19.05342
  Beta  occ. eigenvalues --  -14.26866 -14.26566 -14.26446 -14.26266 -14.26257
  Beta  occ. eigenvalues --  -10.26079 -10.26074 -10.26045 -10.25868 -10.25745
  Beta  occ. eigenvalues --  -10.23653 -10.23606 -10.23604 -10.23460 -10.23070
  Beta  occ. eigenvalues --  -10.22565 -10.22550 -10.22472 -10.22230 -10.22227
  Beta  occ. eigenvalues --  -10.22207 -10.22182 -10.21968 -10.21901 -10.21850
  Beta  occ. eigenvalues --  -10.21439 -10.21368 -10.21325 -10.21213 -10.20786
  Beta  occ. eigenvalues --  -10.20520 -10.20472 -10.20459 -10.20289 -10.20184
  Beta  occ. eigenvalues --  -10.19987 -10.19949 -10.19946 -10.19768 -10.19461
  Beta  occ. eigenvalues --  -10.19453 -10.19421 -10.19328 -10.19299 -10.19248
  Beta  occ. eigenvalues --  -10.19181 -10.19122 -10.18993 -10.18569 -10.18323
  Beta  occ. eigenvalues --  -10.17595 -10.17581 -10.17527 -10.17521 -10.17063
  Beta  occ. eigenvalues --   -7.97789  -7.97691  -7.97523  -7.97420  -7.96967
  Beta  occ. eigenvalues --   -5.98962  -5.98865  -5.98692  -5.98589  -5.98402
  Beta  occ. eigenvalues --   -5.98302  -5.98141  -5.98127  -5.98037  -5.97968
  Beta  occ. eigenvalues --   -5.97872  -5.97707  -5.97606  -5.97574  -5.97169
  Beta  occ. eigenvalues --   -1.40309  -1.40258  -1.39742  -1.39568  -1.39481
  Beta  occ. eigenvalues --   -1.25683  -1.25580  -1.25453  -1.25448  -1.25281
  Beta  occ. eigenvalues --   -1.15269  -1.14997  -1.14917  -1.14877  -1.14712
  Beta  occ. eigenvalues --   -1.09333  -1.09087  -1.08777  -1.08566  -1.07724
  Beta  occ. eigenvalues --   -1.02084  -1.01606  -1.01077  -1.00649  -0.99704
  Beta  occ. eigenvalues --   -0.97848  -0.97581  -0.97299  -0.96813  -0.96247
  Beta  occ. eigenvalues --   -0.94282  -0.93591  -0.93186  -0.93051  -0.92652
  Beta  occ. eigenvalues --   -0.92304  -0.91832  -0.91226  -0.90529  -0.90181
  Beta  occ. eigenvalues --   -0.87327  -0.87123  -0.86657  -0.85904  -0.84690
  Beta  occ. eigenvalues --   -0.83842  -0.82364  -0.81685  -0.81652  -0.81378
  Beta  occ. eigenvalues --   -0.81127  -0.80650  -0.80342  -0.79311  -0.78687
  Beta  occ. eigenvalues --   -0.74413  -0.74254  -0.73744  -0.73637  -0.73498
  Beta  occ. eigenvalues --   -0.72775  -0.72499  -0.72349  -0.71935  -0.71269
  Beta  occ. eigenvalues --   -0.70948  -0.70821  -0.70363  -0.70007  -0.69476
  Beta  occ. eigenvalues --   -0.68507  -0.68052  -0.67820  -0.67710  -0.67578
  Beta  occ. eigenvalues --   -0.67325  -0.66864  -0.66588  -0.66429  -0.66338
  Beta  occ. eigenvalues --   -0.63948  -0.63903  -0.63768  -0.63554  -0.63428
  Beta  occ. eigenvalues --   -0.63378  -0.63226  -0.63107  -0.63028  -0.62975
  Beta  occ. eigenvalues --   -0.62871  -0.62856  -0.62733  -0.62603  -0.62567
  Beta  occ. eigenvalues --   -0.61029  -0.60867  -0.60513  -0.60208  -0.59860
  Beta  occ. eigenvalues --   -0.58389  -0.58355  -0.58144  -0.58062  -0.57765
  Beta  occ. eigenvalues --   -0.57652  -0.57084  -0.57049  -0.56725  -0.56620
  Beta  occ. eigenvalues --   -0.56364  -0.56213  -0.56069  -0.55834  -0.55767
  Beta  occ. eigenvalues --   -0.55668  -0.55590  -0.55509  -0.55411  -0.55312
  Beta  occ. eigenvalues --   -0.55243  -0.54625  -0.54294  -0.53918  -0.53719
  Beta  occ. eigenvalues --   -0.53632  -0.53583  -0.52951  -0.52829  -0.52687
  Beta  occ. eigenvalues --   -0.52322  -0.52071  -0.51480  -0.51233  -0.50779
  Beta  occ. eigenvalues --   -0.50774  -0.48073  -0.47914  -0.47745  -0.47564
  Beta  occ. eigenvalues --   -0.47539  -0.47475  -0.47348  -0.47192  -0.47122
  Beta  occ. eigenvalues --   -0.46908  -0.46874  -0.46810  -0.46699  -0.46650
  Beta  occ. eigenvalues --   -0.45926  -0.43851  -0.43293  -0.42483  -0.41688
  Beta  occ. eigenvalues --   -0.41208  -0.40022  -0.39765  -0.39739  -0.39573
  Beta  occ. eigenvalues --   -0.39387  -0.39129  -0.38987  -0.38805  -0.38511
  Beta  occ. eigenvalues --   -0.37876  -0.36217  -0.35594  -0.35276  -0.35206
  Beta  occ. eigenvalues --   -0.34977  -0.33017  -0.32236  -0.31229  -0.29693
  Beta  occ. eigenvalues --   -0.28866
  Beta virt. eigenvalues --   -0.00537   0.00482   0.02290   0.03771   0.05042
  Beta virt. eigenvalues --    0.06204   0.06469   0.06599   0.06845   0.07367
  Beta virt. eigenvalues --    0.07876   0.09545   0.10925   0.12315   0.12933

 Mulliken charges and spin densities:
               1          2
     1  C   -0.068202   0.000000
     2  C    0.078608  -0.000000
     3  N   -0.210296  -0.000000
     4  C    0.057034   0.000000
     5  C    0.115796   0.000000
     6  F   -0.121406  -0.000000
     7  C    0.037144  -0.000000
     8  C   -0.203774  -0.000000
     9  C    0.173669   0.000000
    10  O   -0.254423  -0.000000
    11  C    0.030339  -0.000000
    12  C   -0.029549   0.000000
    13  C   -0.166024  -0.000000
    14  S    0.220939   0.000000
    15  C   -0.040340  -0.000000
    16  C    0.086174   0.000000
    17  N   -0.187746  -0.000000
    18  C    0.060160  -0.000000
    19  C    0.122186   0.000000
    20  F   -0.132680   0.000000
    21  C    0.045770   0.000000
    22  C   -0.220505   0.000000
    23  C    0.197252  -0.000000
    24  O   -0.232693   0.000000
    25  C    0.027455  -0.000000
    26  C   -0.028463   0.000000
    27  C   -0.162129  -0.000000
    28  S    0.192243   0.000000
    29  C   -0.046185   0.000000
    30  C    0.090018   0.000000
    31  N   -0.207818  -0.000000
    32  C    0.062918   0.000000
    33  C    0.126273   0.000000
    34  F   -0.117551   0.000000
    35  C    0.050976  -0.000000
    36  C   -0.207827  -0.000000
    37  C    0.171271   0.000000
    38  O   -0.253779  -0.000000
    39  C    0.029957   0.000000
    40  C   -0.028240  -0.000000
    41  C   -0.165385   0.000000
    42  S    0.220528   0.000000
    43  C   -0.041220  -0.000000
    44  C    0.086096  -0.000000
    45  N   -0.188020   0.000000
    46  C    0.059880   0.000000
    47  C    0.122646  -0.000000
    48  F   -0.131330  -0.000000
    49  C    0.045969   0.000000
    50  C   -0.220888   0.000000
    51  C    0.197777   0.000000
    52  O   -0.232842   0.000000
    53  C    0.028146   0.000000
    54  C   -0.029257  -0.000000
    55  C   -0.164487   0.000000
    56  S    0.196920  -0.000000
    57  C   -0.042981   0.000000
    58  C    0.090105  -0.000000
    59  N   -0.206416   0.000000
    60  C    0.070436   0.000000
    61  C    0.129001  -0.000000
    62  F   -0.119657  -0.000000
    63  C    0.043709  -0.000000
    64  C   -0.215468   0.000000
    65  C    0.151462  -0.000000
    66  O   -0.255386  -0.000000
    67  C    0.028997   0.000000
    68  C   -0.018483   0.000000
    69  C   -0.144457   0.000000
    70  S    0.208681  -0.000000
    71  H    0.028918   0.000000
    72  H    0.033906  -0.000000
    73  H    0.040018   0.000000
    74  H    0.070608   0.000000
    75  H    0.052466   0.000000
    76  H    0.056494   0.000000
    77  H    0.021193   0.000000
    78  H    0.036329   0.000000
    79  H    0.029908  -0.000000
    80  H    0.072625   0.000000
    81  H    0.054411  -0.000000
    82  H    0.053570   0.000000
    83  H    0.024765   0.000000
    84  H    0.028953  -0.000000
    85  H    0.041178  -0.000000
    86  H    0.053194   0.000000
    87  H    0.071624   0.000000
    88  H    0.057014  -0.000000
    89  H    0.022070  -0.000000
    90  H    0.035801   0.000000
    91  H    0.030327   0.000000
    92  H    0.053422   0.000000
    93  H    0.072340  -0.000000
    94  H    0.052811   0.000000
    95  H    0.021904  -0.000000
    96  H    0.038505  -0.000000
    97  H    0.030305   0.000000
    98  H    0.053861  -0.000000
    99  H    0.068639   0.000000
   100  H    0.054947  -0.000000
   101  H    0.024726  -0.000000
   102  H    0.052540  -0.000000
 Sum of Mulliken charges =  -0.00000   0.00000

 Dipole moment (field-independent basis, Debye):
    X=             -0.1772    Y=              0.7156    Z=             -0.1760  Tot=              0.7579
 Quadrupole moment (field-independent basis, Debye-Ang):
   XX=           -277.5408   YY=           -365.0265   ZZ=           -437.5234
   XY=             52.3710   XZ=             -7.8698   YZ=             -0.0924

 Normal termination of Gaussian 16 at Fri Jul 24 22:43:49 2020.
