 Gaussian 16, Revision A.03,
 Gaussian 16:  EM64L-G16RevA.03 25-Dec-2016

 ---------------------------------------------------------------
 #P uLC-wPBE/cc-pVDZ iop(3/107=0107200000, 3/108=0107200000) opt
 ---------------------------------------------------------------

 --------------
 H4 C7 S2 N1 F1
 --------------
 Symbolic Z-matrix:
 Charge =  0 Multiplicity = 1

 SCF Done:  E(ULC-wPBE) =  -1219.42025648     A.U. after   15 cycles
 SCF Done:  E(ULC-wPBE) =  -1219.45111025     A.U. after   14 cycles
 SCF Done:  E(ULC-wPBE) =  -1219.45658707     A.U. after   14 cycles
 SCF Done:  E(ULC-wPBE) =  -1219.45678321     A.U. after   13 cycles
 SCF Done:  E(ULC-wPBE) =  -1219.45723799     A.U. after   12 cycles
 SCF Done:  E(ULC-wPBE) =  -1219.45726014     A.U. after   11 cycles
 SCF Done:  E(ULC-wPBE) =  -1219.45726937     A.U. after   10 cycles
 SCF Done:  E(ULC-wPBE) =  -1219.45727021     A.U. after    8 cycles
 Optimization completed.
    -- Stationary point found.

                         Standard orientation:
 ---------------------------------------------------------------------
 Center     Atomic      Atomic             Coordinates (Angstroms)
 Number     Number       Type             X           Y           Z
 ---------------------------------------------------------------------
      1          6           0        3.092796   -0.527266   -0.000210
      2          6           0        2.799981    0.820310   -0.000130
      3          6           0        1.395163    1.031459   -0.000033
      4          9           0        0.841700    2.265918    0.000152
      5          6           0        0.622932   -0.121000    0.000395
      6         16           0        1.670698   -1.524119   -0.000110
      7          6           0       -0.815681   -0.279689    0.000457
      8          7           0       -1.417044   -1.455813    0.000453
      9          6           0       -2.781190   -1.302508   -0.000042
     10          6           0       -3.249254   -0.006970   -0.000387
     11         16           0       -1.918170    1.106994   -0.000079
     12          1           0        4.080651   -0.999658   -0.000421
     13          1           0        3.538476    1.629465   -0.000125
     14          1           0       -3.420015   -2.194962   -0.000532
     15          1           0       -4.284040    0.350554   -0.000720
 ---------------------------------------------------------------------

 The electronic state is 1-A.
 Alpha  occ. eigenvalues --  -88.17459 -88.16992 -24.36452 -14.06292 -10.05257
 Alpha  occ. eigenvalues --  -10.03279 -10.00640 -10.00372  -9.99299  -9.99259
 Alpha  occ. eigenvalues --   -9.98202  -7.77677  -7.77267  -5.79777  -5.79327
 Alpha  occ. eigenvalues --   -5.79322  -5.78905  -5.78900  -5.78548  -1.19543
 Alpha  occ. eigenvalues --   -0.94465  -0.88151  -0.79115  -0.77167  -0.74024
 Alpha  occ. eigenvalues --   -0.70904  -0.62146  -0.60521  -0.58211  -0.56411
 Alpha  occ. eigenvalues --   -0.52624  -0.49469  -0.47825  -0.47088  -0.46577
 Alpha  occ. eigenvalues --   -0.44459  -0.43411  -0.41409  -0.39544  -0.39449
 Alpha  occ. eigenvalues --   -0.38139  -0.37094  -0.31996  -0.30700  -0.29481
 Alpha  occ. eigenvalues --   -0.28566  -0.24708
 Alpha virt. eigenvalues --   -0.03307   0.02537   0.04144   0.04824   0.06415
 Alpha virt. eigenvalues --    0.09080   0.09989   0.10384   0.11896   0.14177
 Alpha virt. eigenvalues --    0.15404   0.16142   0.19165   0.22856   0.27113

  Beta  occ. eigenvalues --  -88.17459 -88.16992 -24.36452 -14.06292 -10.05257
  Beta  occ. eigenvalues --  -10.03279 -10.00640 -10.00372  -9.99299  -9.99259
  Beta  occ. eigenvalues --   -9.98202  -7.77677  -7.77267  -5.79777  -5.79327
  Beta  occ. eigenvalues --   -5.79322  -5.78905  -5.78900  -5.78548  -1.19543
  Beta  occ. eigenvalues --   -0.94465  -0.88151  -0.79115  -0.77167  -0.74024
  Beta  occ. eigenvalues --   -0.70904  -0.62146  -0.60521  -0.58211  -0.56411
  Beta  occ. eigenvalues --   -0.52624  -0.49469  -0.47825  -0.47088  -0.46577
  Beta  occ. eigenvalues --   -0.44459  -0.43411  -0.41409  -0.39544  -0.39449
  Beta  occ. eigenvalues --   -0.38139  -0.37094  -0.31996  -0.30700  -0.29481
  Beta  occ. eigenvalues --   -0.28566  -0.24708
  Beta virt. eigenvalues --   -0.03307   0.02537   0.04144   0.04824   0.06415
  Beta virt. eigenvalues --    0.09080   0.09989   0.10384   0.11896   0.14177
  Beta virt. eigenvalues --    0.15404   0.16142   0.19165   0.22856   0.27113

 Mulliken charges and spin densities:
               1          2
     1  C   -0.122428   0.000000
     2  C    0.075037  -0.000000
     3  C    0.089151   0.000000
     4  F   -0.117195   0.000000
     5  C   -0.135786  -0.000000
     6  S    0.204104   0.000000
     7  C    0.029306   0.000000
     8  N   -0.195792   0.000000
     9  C    0.129365  -0.000000
    10  C   -0.163317   0.000000
    11  S    0.152899  -0.000000
    12  H    0.028312  -0.000000
    13  H    0.000884  -0.000000
    14  H    0.001228  -0.000000
    15  H    0.024231   0.000000
 Sum of Mulliken charges =  -0.00000  -0.00000

 Dipole moment (field-independent basis, Debye):
    X=              0.5713    Y=              0.3988    Z=             -0.0013  Tot=              0.6967
 Quadrupole moment (field-independent basis, Debye-Ang):
   XX=            -57.7165   YY=            -76.2384   ZZ=            -78.6739
   XY=             -0.4585   XZ=              0.0019   YZ=              0.0019

 Normal termination of Gaussian 16 at Fri Jul 24 13:04:01 2020.
