 Gaussian 16, Revision A.03,
 Gaussian 16:  EM64L-G16RevA.03 25-Dec-2016

 ---------------------------------------------------------------
 #P uLC-wPBE/cc-pVDZ iop(3/107=0348800000, 3/108=0348800000) opt
 ---------------------------------------------------------------

 ----------------
 H23 C33 N6 O3 F3
 ----------------
 Symbolic Z-matrix:
 Charge =  0 Multiplicity = 1

 SCF Done:  E(ULC-wPBE) =  -2123.47036478     A.U. after   16 cycles
 SCF Done:  E(ULC-wPBE) =  -2123.54208493     A.U. after   14 cycles
 SCF Done:  E(ULC-wPBE) =  -2123.59060785     A.U. after   14 cycles
 SCF Done:  E(ULC-wPBE) =  -2123.60230762     A.U. after   14 cycles
 SCF Done:  E(ULC-wPBE) =  -2123.60434547     A.U. after   14 cycles
 SCF Done:  E(ULC-wPBE) =  -2123.60468191     A.U. after   13 cycles
 SCF Done:  E(ULC-wPBE) =  -2123.60481631     A.U. after   12 cycles
 SCF Done:  E(ULC-wPBE) =  -2123.60485508     A.U. after   12 cycles
 SCF Done:  E(ULC-wPBE) =  -2123.60487616     A.U. after   11 cycles
 SCF Done:  E(ULC-wPBE) =  -2123.60488519     A.U. after   11 cycles
 SCF Done:  E(ULC-wPBE) =  -2123.60488722     A.U. after   11 cycles
 SCF Done:  E(ULC-wPBE) =  -2123.60488773     A.U. after    8 cycles
 SCF Done:  E(ULC-wPBE) =  -2123.60488793     A.U. after    7 cycles
 SCF Done:  E(ULC-wPBE) =  -2123.60488805     A.U. after    8 cycles
 SCF Done:  E(ULC-wPBE) =  -2123.60488811     A.U. after    7 cycles
 SCF Done:  E(ULC-wPBE) =  -2123.60488809     A.U. after    6 cycles
 Optimization completed.
    -- Stationary point found.

                         Standard orientation:
 ---------------------------------------------------------------------
 Center     Atomic      Atomic             Coordinates (Angstroms)
 Number     Number       Type             X           Y           Z
 ---------------------------------------------------------------------
      1          6           0      -11.938176   -1.413105    0.071508
      2          6           0      -11.507142   -0.180372    0.545137
      3          6           0      -10.150701    0.081300    0.497925
      4          9           0       -9.685567    1.250305    0.967118
      5          6           0       -9.258600   -0.861901   -0.009407
      6          7           0       -9.682481   -2.044827   -0.453306
      7          6           0      -10.987878   -2.306339   -0.412945
      8          6           0       -7.786235   -0.605335   -0.032660
      9          7           0       -7.019162   -1.469570    0.617237
     10          6           0       -5.698732   -1.289011    0.606827
     11          6           0       -5.072258   -0.236505   -0.056793
     12          6           0       -5.880035    0.671733   -0.748203
     13          6           0       -7.257063    0.488764   -0.744087
     14          8           0       -8.146574    1.268270   -1.399530
     15          6           0       -7.654299    2.398474   -2.087660
     16          6           0       -3.597922   -0.084124   -0.031262
     17          6           0       -2.994777    1.158605    0.161003
     18          6           0       -1.615435    1.220329    0.174829
     19          9           0       -1.013187    2.408413    0.339571
     20          6           0       -0.845139    0.071647    0.006166
     21          7           0       -1.422738   -1.112838   -0.191097
     22          6           0       -2.750386   -1.182874   -0.207758
     23          6           0        0.647657    0.124934   -0.008844
     24          7           0        1.250694   -0.335298   -1.096750
     25          6           0        2.581949   -0.324075   -1.143458
     26          6           0        3.385339    0.140109   -0.103808
     27          6           0        2.750104    0.618610    1.046169
     28          6           0        1.361716    0.612314    1.102215
     29          8           0        0.625388    1.012556    2.163212
     30          6           0        1.306860    1.557491    3.273671
     31          6           0        4.863639    0.129919   -0.212705
     32          6           0        5.547356   -0.949285   -0.772842
     33          6           0        6.925032   -0.884411   -0.839639
     34          9           0        7.602961   -1.902218   -1.391675
     35          6           0        7.616879    0.223702   -0.353961
     36          7           0        6.961018    1.259617    0.168028
     37          6           0        5.634146    1.208773    0.232205
     38          6           0        9.105956    0.317806   -0.441011
     39          7           0        9.597146    1.360507   -1.098024
     40          6           0       10.922808    1.486242   -1.189776
     41          6           0       11.806808    0.577174   -0.628908
     42          6           0       11.301524   -0.514239    0.072453
     43          6           0        9.921070   -0.649645    0.177274
     44          8           0        9.282011   -1.634927    0.850234
     45          6           0       10.067212   -2.659794    1.420368
     46          1           0      -12.997690   -1.679328    0.082415
     47          1           0      -12.190976    0.568384    0.951311
     48          1           0      -11.291756   -3.288919   -0.790761
     49          1           0       -5.107439   -2.013100    1.177861
     50          1           0       -5.420100    1.490504   -1.304754
     51          1           0       -6.965930    2.110894   -2.901575
     52          1           0       -7.141259    3.097025   -1.403689
     53          1           0       -8.530752    2.897810   -2.519649
     54          1           0       -3.575986    2.071396    0.312904
     55          1           0       -3.176613   -2.175769   -0.390235
     56          1           0        3.034507   -0.687738   -2.072675
     57          1           0        3.348515    0.961060    1.892165
     58          1           0        0.531794    1.845434    3.995093
     59          1           0        1.889132    2.451965    2.991656
     60          1           0        1.977732    0.816413    3.742360
     61          1           0        5.030414   -1.837430   -1.143661
     62          1           0        5.142003    2.094377    0.650862
     63          1           0       11.288497    2.357689   -1.743386
     64          1           0       12.885719    0.716699   -0.732044
     65          1           0       11.980279   -1.235564    0.530679
     66          1           0       10.659057   -3.190198    0.653970
     67          1           0       10.744912   -2.267928    2.199223
     68          1           0        9.362500   -3.363977    1.880728
 ---------------------------------------------------------------------

 The electronic state is 1-A.
 Alpha  occ. eigenvalues --  -24.48238 -24.48011 -24.47969 -19.00075 -19.00050
 Alpha  occ. eigenvalues --  -18.99809 -14.19454 -14.19373 -14.19182 -14.19128
 Alpha  occ. eigenvalues --  -14.19088 -14.18725 -10.18548 -10.18364 -10.18231
 Alpha  occ. eigenvalues --  -10.16888 -10.16845 -10.16507 -10.15717 -10.15688
 Alpha  occ. eigenvalues --  -10.15571 -10.14015 -10.13860 -10.13803 -10.13619
 Alpha  occ. eigenvalues --  -10.13544 -10.13292 -10.12942 -10.12926 -10.12642
 Alpha  occ. eigenvalues --  -10.12450 -10.12369 -10.12366 -10.12290 -10.12188
 Alpha  occ. eigenvalues --  -10.12145 -10.12080 -10.11869 -10.11864 -10.11820
 Alpha  occ. eigenvalues --  -10.11612 -10.11602 -10.11294 -10.11146 -10.10690
 Alpha  occ. eigenvalues --   -1.32775  -1.32563  -1.32487  -1.19688  -1.19670
 Alpha  occ. eigenvalues --   -1.19408  -1.08461  -1.08174  -1.08096  -1.06501
 Alpha  occ. eigenvalues --   -1.06110  -1.05940  -0.97016  -0.96406  -0.93561
 Alpha  occ. eigenvalues --   -0.92957  -0.92725  -0.92456  -0.92150  -0.91792
 Alpha  occ. eigenvalues --   -0.91407  -0.89067  -0.87599  -0.86343  -0.83914
 Alpha  occ. eigenvalues --   -0.83591  -0.83106  -0.80646  -0.78746  -0.77317
 Alpha  occ. eigenvalues --   -0.76720  -0.76019  -0.75271  -0.74119  -0.73870
 Alpha  occ. eigenvalues --   -0.73420  -0.72988  -0.72326  -0.71755  -0.67717
 Alpha  occ. eigenvalues --   -0.67303  -0.66569  -0.66105  -0.65459  -0.64651
 Alpha  occ. eigenvalues --   -0.64550  -0.63568  -0.63277  -0.63083  -0.62844
 Alpha  occ. eigenvalues --   -0.62281  -0.62190  -0.61876  -0.61611  -0.59855
 Alpha  occ. eigenvalues --   -0.59749  -0.59710  -0.59587  -0.59045  -0.58477
 Alpha  occ. eigenvalues --   -0.58216  -0.58147  -0.57972  -0.55578  -0.55112
 Alpha  occ. eigenvalues --   -0.55063  -0.54735  -0.54549  -0.53846  -0.53688
 Alpha  occ. eigenvalues --   -0.53455  -0.53235  -0.53103  -0.52710  -0.52449
 Alpha  occ. eigenvalues --   -0.52178  -0.51674  -0.51428  -0.51090  -0.50896
 Alpha  occ. eigenvalues --   -0.50809  -0.50551  -0.50268  -0.49819  -0.49315
 Alpha  occ. eigenvalues --   -0.48286  -0.47805  -0.47600  -0.45706  -0.45517
 Alpha  occ. eigenvalues --   -0.45204  -0.45125  -0.44977  -0.44741  -0.42011
 Alpha  occ. eigenvalues --   -0.41247  -0.39343  -0.38847  -0.38055  -0.37905
 Alpha  occ. eigenvalues --   -0.37214  -0.36556  -0.36422  -0.35832  -0.35702
 Alpha  occ. eigenvalues --   -0.35386  -0.35330  -0.35195  -0.35074  -0.32950
 Alpha  occ. eigenvalues --   -0.32121  -0.31203
 Alpha virt. eigenvalues --    0.00833   0.02433   0.04515   0.05334   0.05565
 Alpha virt. eigenvalues --    0.05601   0.06488   0.06595   0.07239   0.07688
 Alpha virt. eigenvalues --    0.09434   0.10757   0.14204   0.14457   0.14548

  Beta  occ. eigenvalues --  -24.48238 -24.48011 -24.47969 -19.00075 -19.00050
  Beta  occ. eigenvalues --  -18.99809 -14.19454 -14.19373 -14.19182 -14.19128
  Beta  occ. eigenvalues --  -14.19088 -14.18725 -10.18548 -10.18364 -10.18231
  Beta  occ. eigenvalues --  -10.16888 -10.16845 -10.16507 -10.15717 -10.15688
  Beta  occ. eigenvalues --  -10.15571 -10.14015 -10.13860 -10.13803 -10.13619
  Beta  occ. eigenvalues --  -10.13544 -10.13292 -10.12942 -10.12926 -10.12642
  Beta  occ. eigenvalues --  -10.12450 -10.12369 -10.12366 -10.12290 -10.12188
  Beta  occ. eigenvalues --  -10.12145 -10.12080 -10.11869 -10.11864 -10.11820
  Beta  occ. eigenvalues --  -10.11612 -10.11602 -10.11294 -10.11146 -10.10690
  Beta  occ. eigenvalues --   -1.32775  -1.32563  -1.32487  -1.19688  -1.19670
  Beta  occ. eigenvalues --   -1.19408  -1.08461  -1.08174  -1.08096  -1.06501
  Beta  occ. eigenvalues --   -1.06110  -1.05940  -0.97016  -0.96406  -0.93561
  Beta  occ. eigenvalues --   -0.92957  -0.92725  -0.92456  -0.92150  -0.91792
  Beta  occ. eigenvalues --   -0.91407  -0.89067  -0.87599  -0.86343  -0.83914
  Beta  occ. eigenvalues --   -0.83591  -0.83106  -0.80646  -0.78746  -0.77317
  Beta  occ. eigenvalues --   -0.76720  -0.76019  -0.75271  -0.74119  -0.73870
  Beta  occ. eigenvalues --   -0.73420  -0.72988  -0.72326  -0.71755  -0.67717
  Beta  occ. eigenvalues --   -0.67303  -0.66569  -0.66105  -0.65459  -0.64651
  Beta  occ. eigenvalues --   -0.64550  -0.63568  -0.63277  -0.63083  -0.62844
  Beta  occ. eigenvalues --   -0.62281  -0.62190  -0.61876  -0.61611  -0.59855
  Beta  occ. eigenvalues --   -0.59749  -0.59710  -0.59587  -0.59045  -0.58477
  Beta  occ. eigenvalues --   -0.58216  -0.58147  -0.57972  -0.55578  -0.55112
  Beta  occ. eigenvalues --   -0.55063  -0.54735  -0.54549  -0.53846  -0.53688
  Beta  occ. eigenvalues --   -0.53455  -0.53235  -0.53103  -0.52710  -0.52449
  Beta  occ. eigenvalues --   -0.52178  -0.51674  -0.51428  -0.51090  -0.50896
  Beta  occ. eigenvalues --   -0.50809  -0.50551  -0.50268  -0.49819  -0.49315
  Beta  occ. eigenvalues --   -0.48286  -0.47805  -0.47600  -0.45706  -0.45517
  Beta  occ. eigenvalues --   -0.45204  -0.45125  -0.44977  -0.44741  -0.42011
  Beta  occ. eigenvalues --   -0.41247  -0.39343  -0.38847  -0.38055  -0.37905
  Beta  occ. eigenvalues --   -0.37214  -0.36556  -0.36422  -0.35832  -0.35702
  Beta  occ. eigenvalues --   -0.35386  -0.35330  -0.35195  -0.35074  -0.32950
  Beta  occ. eigenvalues --   -0.32121  -0.31203
  Beta virt. eigenvalues --    0.00833   0.02433   0.04515   0.05334   0.05565
  Beta virt. eigenvalues --    0.05601   0.06488   0.06595   0.07239   0.07688
  Beta virt. eigenvalues --    0.09434   0.10757   0.14204   0.14457   0.14548

 Mulliken charges and spin densities:
               1          2
     1  C   -0.040566  -0.000000
     2  C    0.042012   0.000000
     3  C    0.128756  -0.000000
     4  F   -0.125297  -0.000000
     5  C    0.020075   0.000000
     6  N   -0.164410  -0.000000
     7  C    0.075254   0.000000
     8  C    0.040850  -0.000000
     9  N   -0.156192  -0.000000
    10  C    0.076830   0.000000
    11  C   -0.069465   0.000000
    12  C    0.015509  -0.000000
    13  C    0.132442   0.000000
    14  O   -0.242867  -0.000000
    15  C    0.048508   0.000000
    16  C   -0.070883  -0.000000
    17  C    0.052879   0.000000
    18  C    0.137374  -0.000000
    19  F   -0.122506   0.000000
    20  C    0.024213  -0.000000
    21  N   -0.160599   0.000000
    22  C    0.083392  -0.000000
    23  C    0.035886   0.000000
    24  N   -0.156124  -0.000000
    25  C    0.074595  -0.000000
    26  C   -0.065752   0.000000
    27  C    0.014984  -0.000000
    28  C    0.131950  -0.000000
    29  O   -0.243600   0.000000
    30  C    0.048008  -0.000000
    31  C   -0.068479  -0.000000
    32  C    0.054109   0.000000
    33  C    0.138795  -0.000000
    34  F   -0.121753   0.000000
    35  C    0.026801   0.000000
    36  N   -0.160634  -0.000000
    37  C    0.077291   0.000000
    38  C    0.029687  -0.000000
    39  N   -0.161284   0.000000
    40  C    0.071459   0.000000
    41  C   -0.040275   0.000000
    42  C   -0.003058  -0.000000
    43  C    0.124003  -0.000000
    44  O   -0.243834   0.000000
    45  C    0.047346   0.000000
    46  H    0.012017  -0.000000
    47  H    0.021139   0.000000
    48  H    0.017590   0.000000
    49  H    0.011219   0.000000
    50  H    0.003650  -0.000000
    51  H    0.053409   0.000000
    52  H    0.049339  -0.000000
    53  H    0.063394  -0.000000
    54  H    0.010496   0.000000
    55  H    0.018422   0.000000
    56  H    0.009883  -0.000000
    57  H    0.005978  -0.000000
    58  H    0.063622   0.000000
    59  H    0.051929   0.000000
    60  H    0.052575   0.000000
    61  H    0.016756   0.000000
    62  H    0.011052   0.000000
    63  H    0.012072  -0.000000
    64  H    0.006556  -0.000000
    65  H    0.010233  -0.000000
    66  H    0.051053   0.000000
    67  H    0.049448  -0.000000
    68  H    0.062741   0.000000
 Sum of Mulliken charges =  -0.00000   0.00000

 Dipole moment (field-independent basis, Debye):
    X=              0.7503    Y=              1.5895    Z=              2.6159  Tot=              3.1515
 Quadrupole moment (field-independent basis, Debye-Ang):
   XX=           -167.9479   YY=           -245.2959   ZZ=           -242.3928
   XY=            -45.9964   XZ=             26.1050   YZ=             -3.6148

 Normal termination of Gaussian 16 at Fri Jul 24 16:57:43 2020.
