 Gaussian 16, Revision A.03,
 Gaussian 16:  EM64L-G16RevA.03 25-Dec-2016

 ---------------------------------------------------------------
 #P uLC-wPBE/cc-pVDZ iop(3/107=0435700000, 3/108=0435700000) opt
 ---------------------------------------------------------------

 ----------------
 H51 C77 S7 O7 F7
 ----------------
 Symbolic Z-matrix:
 Charge =  0 Multiplicity = 1

 SCF Done:  E(ULC-wPBE) =  -6973.95584243     A.U. after   17 cycles
 SCF Done:  E(ULC-wPBE) =  -6974.06127040     A.U. after   14 cycles
 SCF Done:  E(ULC-wPBE) =  -6974.17663612     A.U. after   14 cycles
 SCF Done:  E(ULC-wPBE) =  -6974.21108193     A.U. after   14 cycles
 SCF Done:  E(ULC-wPBE) =  -6974.22007357     A.U. after   15 cycles
 SCF Done:  E(ULC-wPBE) =  -6974.22601340     A.U. after   14 cycles
 SCF Done:  E(ULC-wPBE) =  -6974.22939046     A.U. after   16 cycles
 SCF Done:  E(ULC-wPBE) =  -6974.23279448     A.U. after   14 cycles
 SCF Done:  E(ULC-wPBE) =  -6974.23488481     A.U. after   14 cycles
 SCF Done:  E(ULC-wPBE) =  -6974.23619686     A.U. after   13 cycles
 SCF Done:  E(ULC-wPBE) =  -6974.23841605     A.U. after   11 cycles
 SCF Done:  E(ULC-wPBE) =  -6974.23841985     A.U. after   11 cycles
 SCF Done:  E(ULC-wPBE) =  -6974.23842095     A.U. after   10 cycles
 SCF Done:  E(ULC-wPBE) =  -6974.23842147     A.U. after   10 cycles
 SCF Done:  E(ULC-wPBE) =  -6974.23842149     A.U. after    7 cycles
 SCF Done:  E(ULC-wPBE) =  -6974.23842164     A.U. after    7 cycles
 SCF Done:  E(ULC-wPBE) =  -6974.23842163     A.U. after    7 cycles
 SCF Done:  E(ULC-wPBE) =  -6974.23842165     A.U. after    6 cycles
 SCF Done:  E(ULC-wPBE) =  -6974.23842172     A.U. after    6 cycles
 SCF Done:  E(ULC-wPBE) =  -6974.23842170     A.U. after    5 cycles
 Optimization completed on the basis of negligible forces.
    -- Stationary point found.

                         Standard orientation:
 ---------------------------------------------------------------------
 Center     Atomic      Atomic             Coordinates (Angstroms)
 Number     Number       Type             X           Y           Z
 ---------------------------------------------------------------------
      1          6           0      -27.361661   -1.526482    0.125243
      2          6           0      -26.396211   -2.374617   -0.378780
      3          6           0      -25.103690   -1.895439   -0.487802
      4          9           0      -24.172572   -2.726374   -0.974516
      5          6           0      -24.719444   -0.612540   -0.121317
      6          6           0      -25.732131    0.226066    0.386991
      7          8           0      -25.350890    1.471677    0.737020
      8          6           0      -26.301772    2.325296    1.324052
      9          6           0      -27.039510   -0.231718    0.509047
     10          6           0      -23.326154   -0.151820   -0.257884
     11          6           0      -22.881226    1.075329   -0.659195
     12          6           0      -21.468762    1.189406   -0.644563
     13          6           0      -20.845079    0.050849   -0.222536
     14         16           0      -21.995288   -1.169178    0.151320
     15          6           0      -19.401371   -0.196458   -0.093821
     16          6           0      -18.867737   -1.460202   -0.298663
     17          6           0      -17.504302   -1.641930   -0.172301
     18          9           0      -17.037705   -2.878196   -0.390012
     19          6           0      -16.608942   -0.628995    0.150008
     20          6           0      -17.177878    0.645430    0.343632
     21          8           0      -16.305587    1.627802    0.648995
     22          6           0      -16.789968    2.933193    0.843675
     23          6           0      -18.544053    0.855420    0.232236
     24          6           0      -15.166882   -0.896716    0.276429
     25          6           0      -14.576395   -2.067944    0.665143
     26          6           0      -13.162035   -2.031826    0.606740
     27          6           0      -12.677754   -0.834998    0.165773
     28         16           0      -13.961597    0.259834   -0.162271
     29          6           0      -11.271384   -0.442528   -0.007174
     30          6           0      -10.321779   -1.397193   -0.342065
     31          6           0       -9.006028   -1.005937   -0.484565
     32          9           0       -8.115784   -1.954343   -0.805317
     33          6           0       -8.555606    0.298010   -0.325388
     34          6           0       -9.539923    1.250858    0.006329
     35          8           0       -9.108992    2.519213    0.164527
     36          6           0      -10.032544    3.499271    0.569974
     37          6           0      -10.868841    0.882419    0.166155
     38          6           0       -7.138940    0.661680   -0.494167
     39          6           0       -6.620522    1.804341   -1.035153
     40          6           0       -5.204447    1.842399   -1.009696
     41          6           0       -4.649832    0.732358   -0.440763
     42         16           0       -5.870182   -0.368551    0.058673
     43          6           0       -3.223818    0.424637   -0.258108
     44          6           0       -2.759914   -0.882007   -0.295468
     45          6           0       -1.410308   -1.120714   -0.124061
     46          9           0       -1.012016   -2.398201   -0.179000
     47          6           0       -0.462507   -0.126032    0.085896
     48          6           0       -0.960947    1.191684    0.109972
     49          8           0       -0.037967    2.155576    0.306201
     50          6           0       -0.450052    3.499481    0.328478
     51          6           0       -2.311818    1.460479   -0.050334
     52          6           0        0.960756   -0.454192    0.269843
     53          6           0        1.480350   -1.600180    0.806924
     54          6           0        2.895104   -1.647892    0.770763
     55          6           0        3.450742   -0.540924    0.198730
     56         16           0        2.234085    0.574157   -0.281737
     57          6           0        4.878812   -0.248597    0.006447
     58          6           0        5.777584   -1.286321   -0.195094
     59          6           0        7.114787   -0.986561   -0.358421
     60          9           0        7.954445   -2.013230   -0.547806
     61          6           0        7.635510    0.300760   -0.346501
     62          6           0        6.701964    1.338171   -0.148633
     63          8           0        7.201074    2.591267   -0.133822
     64          6           0        6.328785    3.661071    0.135126
     65          6           0        5.352696    1.063845    0.028827
     66          6           0        9.072321    0.564625   -0.530076
     67          6           0        9.660515    1.605131   -1.192199
     68          6           0       11.076102    1.569846   -1.143895
     69          6           0       11.560688    0.507327   -0.437074
     70         16           0       10.274636   -0.459170    0.165170
     71          6           0       12.965031    0.147925   -0.191335
     72          6           0       13.357604   -1.176823   -0.070192
     73          6           0       14.689805   -1.464670    0.154463
     74          9           0       15.018536   -2.759294    0.253178
     75          6           0       15.687327   -0.503671    0.269078
     76          6           0       15.260789    0.832428    0.133186
     77          8           0       16.231679    1.762913    0.237677
     78          6           0       15.893281    3.120085    0.097348
     79          6           0       13.928952    1.151499   -0.084266
     80          6           0       17.088081   -0.882335    0.517784
     81          6           0       17.537533   -1.984828    1.191653
     82          6           0       18.948259   -2.109087    1.190836
     83          6           0       19.570917   -1.104795    0.509031
     84         16           0       18.423047    0.009029   -0.120162
     85          6           0       21.015520   -0.909361    0.314471
     86          6           0       21.859516   -2.008038    0.241735
     87          6           0       23.213690   -1.797283    0.073332
     88          9           0       24.000006   -2.879825    0.008577
     89          6           0       23.800950   -0.544953   -0.040059
     90          6           0       22.922824    0.554800    0.027612
     91          8           0       23.490211    1.773579   -0.082223
     92          6           0       22.673870    2.910565    0.047977
     93          6           0       21.558095    0.371965    0.206519
     94          6           0       25.253170   -0.376028   -0.222171
     95          6           0       25.900268    0.518277   -1.025743
     96          6           0       27.315515    0.429426   -0.935769
     97          6           0       27.717975   -0.524103   -0.055264
     98         16           0       26.392819   -1.329404    0.656726
     99          1           0      -28.389746   -1.873241    0.224113
    100          1           0      -26.612893   -3.393423   -0.691377
    101          1           0      -27.126563    2.551049    0.632080
    102          1           0      -25.771548    3.252075    1.562166
    103          1           0      -26.710500    1.896980    2.250887
    104          1           0      -27.816889    0.416790    0.903458
    105          1           0      -23.553063    1.874642   -0.956354
    106          1           0      -20.931338    2.078457   -0.967667
    107          1           0      -19.483575   -2.312058   -0.579612
    108          1           0      -17.289696    3.316602   -0.057920
    109          1           0      -15.914237    3.551976    1.059674
    110          1           0      -17.483717    2.982120    1.695484
    111          1           0      -18.965892    1.837750    0.423507
    112          1           0      -15.142341   -2.937210    0.984969
    113          1           0      -12.524305   -2.859455    0.909437
    114          1           0      -10.583114   -2.437291   -0.520483
    115          1           0      -10.481972    3.251810    1.542691
    116          1           0      -10.829739    3.638036   -0.175085
    117          1           0       -9.464879    4.429627    0.664560
    118          1           0      -11.610865    1.623887    0.449725
    119          1           0       -7.242680    2.595734   -1.440859
    120          1           0       -4.614944    2.654398   -1.430177
    121          1           0       -3.419782   -1.727408   -0.479112
    122          1           0        0.456814    4.091720    0.481190
    123          1           0       -0.917815    3.793746   -0.622432
    124          1           0       -1.148979    3.692454    1.155243
    125          1           0       -2.679513    2.480586    0.010300
    126          1           0        0.863048   -2.392628    1.218165
    127          1           0        3.481916   -2.466223    1.182224
    128          1           0        5.460682   -2.324625   -0.253706
    129          1           0        5.854238    3.556102    1.121638
    130          1           0        6.946292    4.564073    0.129531
    131          1           0        5.549790    3.752764   -0.636026
    132          1           0        4.649881    1.872871    0.208554
    133          1           0        9.088723    2.374885   -1.700622
    134          1           0       11.715430    2.293122   -1.645683
    135          1           0       12.655353   -2.001916   -0.169803
    136          1           0       15.456052    3.326760   -0.890468
    137          1           0       15.194019    3.443767    0.881942
    138          1           0       16.828839    3.677500    0.199852
    139          1           0       13.616402    2.189686   -0.147524
    140          1           0       16.872641   -2.692297    1.677061
    141          1           0       19.484630   -2.904040    1.704318
    142          1           0       21.487373   -3.028584    0.287112
    143          1           0       22.178717    2.941869    1.029591
    144          1           0       23.339712    3.773667   -0.044258
    145          1           0       21.912721    2.956644   -0.744945
    146          1           0       20.897013    1.230819    0.285596
    147          1           0       25.372545    1.225816   -1.658192
    148          1           0       28.001937    1.051773   -1.505654
    149          1           0       28.733981   -0.808342    0.204696
 ---------------------------------------------------------------------

 Alpha virt. eigenvalues --    0.44908   0.45701   0.45894   0.46180   0.46337
 Alpha virt. eigenvalues --    0.46612   0.46941   0.47315   0.47679   0.48502
 Alpha virt. eigenvalues --    0.49014   0.49330   0.49592   0.49821   0.49991

  Beta  occ. eigenvalues --  -88.33988 -88.33867 -88.33743 -88.33692 -88.33551
  Beta  occ. eigenvalues --  -88.33350 -88.32629 -24.52560 -24.52483 -24.52362
  Beta  occ. eigenvalues --  -24.52295 -24.52190 -24.52051 -24.51562 -19.04829
  Beta  occ. eigenvalues --  -19.04675 -19.04652 -19.04479 -19.04394 -19.04311
  Beta  occ. eigenvalues --  -19.03700 -10.23695 -10.23690 -10.23498 -10.23493
  Beta  occ. eigenvalues --  -10.23320 -10.23250 -10.22727 -10.22493 -10.22443
  Beta  occ. eigenvalues --  -10.22301 -10.22254 -10.22129 -10.22003 -10.21533
  Beta  occ. eigenvalues --  -10.20751 -10.20696 -10.20584 -10.20467 -10.20337
  Beta  occ. eigenvalues --  -10.20307 -10.19774 -10.18191 -10.18137 -10.17992
  Beta  occ. eigenvalues --  -10.17964 -10.17914 -10.17851 -10.17800 -10.17687
  Beta  occ. eigenvalues --  -10.17672 -10.17647 -10.17628 -10.17577 -10.17515
  Beta  occ. eigenvalues --  -10.17474 -10.17412 -10.17400 -10.17055 -10.17000
  Beta  occ. eigenvalues --  -10.16892 -10.16815 -10.16796 -10.16626 -10.16581
  Beta  occ. eigenvalues --  -10.16459 -10.16408 -10.16378 -10.15766 -10.15690
  Beta  occ. eigenvalues --  -10.15135 -10.15025 -10.14880 -10.14829 -10.14817
  Beta  occ. eigenvalues --  -10.14770 -10.14739 -10.14647 -10.14595 -10.14565
  Beta  occ. eigenvalues --  -10.14538 -10.14536 -10.14530 -10.14410 -10.14395
  Beta  occ. eigenvalues --  -10.14336 -10.14310 -10.14282 -10.14262 -10.14237
  Beta  occ. eigenvalues --  -10.14143 -10.14102 -10.14076 -10.13902 -10.13875
  Beta  occ. eigenvalues --  -10.13795 -10.13347 -10.13190  -7.94845  -7.94680
  Beta  occ. eigenvalues --   -7.94597  -7.94505  -7.94405  -7.94163  -7.93499
  Beta  occ. eigenvalues --   -5.96217  -5.96058  -5.95970  -5.95883  -5.95778
  Beta  occ. eigenvalues --   -5.95665  -5.95541  -5.95504  -5.95417  -5.95328
  Beta  occ. eigenvalues --   -5.95272  -5.95225  -5.95108  -5.95024  -5.94986
  Beta  occ. eigenvalues --   -5.94933  -5.94863  -5.94832  -5.94591  -5.94310
  Beta  occ. eigenvalues --   -5.93941  -1.37457  -1.37381  -1.37259  -1.37191
  Beta  occ. eigenvalues --   -1.37086  -1.36944  -1.36462  -1.24741  -1.24587
  Beta  occ. eigenvalues --   -1.24562  -1.24385  -1.24311  -1.24217  -1.23630
  Beta  occ. eigenvalues --   -1.07542  -1.07363  -1.07183  -1.07031  -1.06832
  Beta  occ. eigenvalues --   -1.06588  -1.05386  -1.05047  -1.04714  -1.04342
  Beta  occ. eigenvalues --   -1.03989  -1.03614  -1.03306  -1.02908  -0.98194
  Beta  occ. eigenvalues --   -0.97712  -0.97094  -0.96334  -0.95596  -0.94943
  Beta  occ. eigenvalues --   -0.94623  -0.92718  -0.92551  -0.92454  -0.92344
  Beta  occ. eigenvalues --   -0.92311  -0.92144  -0.91726  -0.90857  -0.90345
  Beta  occ. eigenvalues --   -0.90206  -0.90118  -0.89922  -0.89853  -0.89538
  Beta  occ. eigenvalues --   -0.89351  -0.89011  -0.88638  -0.88301  -0.88030
  Beta  occ. eigenvalues --   -0.87822  -0.87378  -0.87149  -0.86959  -0.86839
  Beta  occ. eigenvalues --   -0.86546  -0.85650  -0.84771  -0.83941  -0.81055
  Beta  occ. eigenvalues --   -0.80182  -0.79216  -0.78382  -0.77738  -0.77489
  Beta  occ. eigenvalues --   -0.77162  -0.76475  -0.76262  -0.76186  -0.76113
  Beta  occ. eigenvalues --   -0.75907  -0.75759  -0.75584  -0.72159  -0.72022
  Beta  occ. eigenvalues --   -0.71810  -0.71751  -0.71471  -0.71258  -0.71086
  Beta  occ. eigenvalues --   -0.71046  -0.70677  -0.70506  -0.70283  -0.70026
  Beta  occ. eigenvalues --   -0.69473  -0.69221  -0.68863  -0.67823  -0.67667
  Beta  occ. eigenvalues --   -0.67519  -0.67336  -0.67188  -0.66803  -0.65965
  Beta  occ. eigenvalues --   -0.65822  -0.65729  -0.65620  -0.65524  -0.65426
  Beta  occ. eigenvalues --   -0.65146  -0.64946  -0.64743  -0.64700  -0.64407
  Beta  occ. eigenvalues --   -0.64349  -0.64143  -0.63801  -0.63382  -0.63333
  Beta  occ. eigenvalues --   -0.63258  -0.63168  -0.63107  -0.63080  -0.62949
  Beta  occ. eigenvalues --   -0.62917  -0.62901  -0.62712  -0.62680  -0.62597
  Beta  occ. eigenvalues --   -0.62462  -0.62122  -0.61670  -0.61252  -0.61217
  Beta  occ. eigenvalues --   -0.61060  -0.61028  -0.60978  -0.60859  -0.60766
  Beta  occ. eigenvalues --   -0.60483  -0.60279  -0.59932  -0.59329  -0.58938
  Beta  occ. eigenvalues --   -0.58718  -0.58547  -0.58099  -0.57977  -0.57813
  Beta  occ. eigenvalues --   -0.57307  -0.57017  -0.56678  -0.55535  -0.54861
  Beta  occ. eigenvalues --   -0.54784  -0.54595  -0.54518  -0.54377  -0.54246
  Beta  occ. eigenvalues --   -0.54102  -0.54007  -0.53914  -0.53887  -0.53784
  Beta  occ. eigenvalues --   -0.53690  -0.53554  -0.53475  -0.53315  -0.53184
  Beta  occ. eigenvalues --   -0.53160  -0.53110  -0.52944  -0.52885  -0.52800
  Beta  occ. eigenvalues --   -0.52670  -0.52357  -0.52288  -0.52100  -0.51985
  Beta  occ. eigenvalues --   -0.51800  -0.51722  -0.51559  -0.51496  -0.51273
  Beta  occ. eigenvalues --   -0.51209  -0.51095  -0.50786  -0.50465  -0.50409
  Beta  occ. eigenvalues --   -0.50354  -0.50240  -0.50144  -0.50056  -0.49800
  Beta  occ. eigenvalues --   -0.49788  -0.49564  -0.49508  -0.49349  -0.49193
  Beta  occ. eigenvalues --   -0.48995  -0.48786  -0.48598  -0.47278  -0.47078
  Beta  occ. eigenvalues --   -0.46783  -0.46666  -0.46526  -0.46375  -0.46291
  Beta  occ. eigenvalues --   -0.46189  -0.46125  -0.46097  -0.45983  -0.45914
  Beta  occ. eigenvalues --   -0.45704  -0.45665  -0.45488  -0.45349  -0.45141
  Beta  occ. eigenvalues --   -0.44751  -0.44694  -0.44531  -0.44194  -0.41399
  Beta  occ. eigenvalues --   -0.40952  -0.40354  -0.39489  -0.38661  -0.37787
  Beta  occ. eigenvalues --   -0.37076  -0.36256  -0.36027  -0.36014  -0.35846
  Beta  occ. eigenvalues --   -0.35831  -0.35510  -0.34949  -0.34858  -0.34810
  Beta  occ. eigenvalues --   -0.34737  -0.34635  -0.34532  -0.34414  -0.34001
  Beta  occ. eigenvalues --   -0.33852  -0.33045  -0.31988  -0.30918  -0.29758
  Beta  occ. eigenvalues --   -0.28897  -0.28304
  Beta virt. eigenvalues --    0.00042   0.00710   0.01631   0.02877   0.04071
  Beta virt. eigenvalues --    0.05323   0.06404   0.08080   0.08252   0.08401
  Beta virt. eigenvalues --    0.08524   0.08570   0.08648   0.08843   0.09062

 Mulliken charges and spin densities:
               1          2
     1  C    0.019449   0.000000
     2  C   -0.015625  -0.000000
     3  C    0.119051  -0.000000
     4  F   -0.124668   0.000000
     5  C   -0.062075   0.000000
     6  C    0.115554  -0.000000
     7  O   -0.253445   0.000000
     8  C    0.036569  -0.000000
     9  C   -0.062373   0.000000
    10  C   -0.136792  -0.000000
    11  C    0.051647   0.000000
    12  C    0.005644   0.000000
    13  C   -0.163676  -0.000000
    14  S    0.192158   0.000000
    15  C    0.052709   0.000000
    16  C   -0.017276  -0.000000
    17  C    0.104690  -0.000000
    18  F   -0.127034   0.000000
    19  C   -0.035323  -0.000000
    20  C    0.135764   0.000000
    21  O   -0.260430  -0.000000
    22  C    0.042049   0.000000
    23  C   -0.055926  -0.000000
    24  C   -0.134820   0.000000
    25  C    0.029749  -0.000000
    26  C    0.014784   0.000000
    27  C   -0.165941  -0.000000
    28  S    0.178619   0.000000
    29  C    0.059520   0.000000
    30  C   -0.025915  -0.000000
    31  C    0.127103   0.000000
    32  F   -0.124280  -0.000000
    33  C   -0.049260  -0.000000
    34  C    0.121330   0.000000
    35  O   -0.256683  -0.000000
    36  C    0.038370   0.000000
    37  C   -0.058690  -0.000000
    38  C   -0.138613   0.000000
    39  C    0.047020   0.000000
    40  C    0.007350  -0.000000
    41  C   -0.164141  -0.000000
    42  S    0.190753   0.000000
    43  C    0.052782   0.000000
    44  C   -0.017200   0.000000
    45  C    0.104445   0.000000
    46  F   -0.127200  -0.000000
    47  C   -0.034889  -0.000000
    48  C    0.135588   0.000000
    49  O   -0.260715  -0.000000
    50  C    0.042177   0.000000
    51  C   -0.055924  -0.000000
    52  C   -0.134761  -0.000000
    53  C    0.029332   0.000000
    54  C    0.014948   0.000000
    55  C   -0.166044   0.000000
    56  S    0.178353  -0.000000
    57  C    0.059338  -0.000000
    58  C   -0.025907   0.000000
    59  C    0.127016  -0.000000
    60  F   -0.124337   0.000000
    61  C   -0.049182   0.000000
    62  C    0.121267  -0.000000
    63  O   -0.256643  -0.000000
    64  C    0.038426  -0.000000
    65  C   -0.058675  -0.000000
    66  C   -0.138742  -0.000000
    67  C    0.046853   0.000000
    68  C    0.007530  -0.000000
    69  C   -0.164143   0.000000
    70  S    0.190519  -0.000000
    71  C    0.052187  -0.000000
    72  C   -0.017175   0.000000
    73  C    0.104131  -0.000000
    74  F   -0.127450   0.000000
    75  C   -0.034318  -0.000000
    76  C    0.135436   0.000000
    77  O   -0.260279  -0.000000
    78  C    0.042202  -0.000000
    79  C   -0.055872   0.000000
    80  C   -0.135483   0.000000
    81  C    0.028770   0.000000
    82  C    0.014787  -0.000000
    83  C   -0.164982  -0.000000
    84  S    0.178231   0.000000
    85  C    0.057735   0.000000
    86  C   -0.029364   0.000000
    87  C    0.130990   0.000000
    88  F   -0.124426   0.000000
    89  C   -0.050536  -0.000000
    90  C    0.123487  -0.000000
    91  O   -0.252881   0.000000
    92  C    0.038479   0.000000
    93  C   -0.060970   0.000000
    94  C   -0.138716   0.000000
    95  C    0.018072  -0.000000
    96  C    0.030722   0.000000
    97  C   -0.152599  -0.000000
    98  S    0.171054  -0.000000
    99  H    0.020223  -0.000000
   100  H    0.023907  -0.000000
   101  H    0.055695   0.000000
   102  H    0.067927   0.000000
   103  H    0.057257  -0.000000
   104  H    0.015523  -0.000000
   105  H    0.006079  -0.000000
   106  H    0.006739   0.000000
   107  H    0.025683   0.000000
   108  H    0.055590  -0.000000
   109  H    0.066652  -0.000000
   110  H    0.059616  -0.000000
   111  H    0.005913   0.000000
   112  H    0.015698   0.000000
   113  H    0.011848  -0.000000
   114  H    0.016502  -0.000000
   115  H    0.059213   0.000000
   116  H    0.056610  -0.000000
   117  H    0.066211   0.000000
   118  H    0.014103  -0.000000
   119  H    0.006072   0.000000
   120  H    0.006127   0.000000
   121  H    0.025884  -0.000000
   122  H    0.066438  -0.000000
   123  H    0.055536  -0.000000
   124  H    0.059529  -0.000000
   125  H    0.005742  -0.000000
   126  H    0.015729  -0.000000
   127  H    0.011671  -0.000000
   128  H    0.016389   0.000000
   129  H    0.059121   0.000000
   130  H    0.066120   0.000000
   131  H    0.056517   0.000000
   132  H    0.013996  -0.000000
   133  H    0.005883   0.000000
   134  H    0.006069  -0.000000
   135  H    0.025391  -0.000000
   136  H    0.055288  -0.000000
   137  H    0.059161   0.000000
   138  H    0.066748  -0.000000
   139  H    0.005514   0.000000
   140  H    0.014946  -0.000000
   141  H    0.010856  -0.000000
   142  H    0.014800   0.000000
   143  H    0.057675   0.000000
   144  H    0.066461   0.000000
   145  H    0.055013  -0.000000
   146  H    0.012836  -0.000000
   147  H    0.006446  -0.000000
   148  H    0.009850   0.000000
   149  H    0.042859   0.000000
 Sum of Mulliken charges =  -0.00000  -0.00000

 Dipole moment (field-independent basis, Debye):
    X=            -15.8402    Y=             15.6543    Z=              2.5926  Tot=             22.4208
 Quadrupole moment (field-independent basis, Debye-Ang):
   XX=           -458.7849   YY=           -529.8450   ZZ=           -612.4870
   XY=              1.9814   XZ=            -42.1825   YZ=             -7.0165

 Normal termination of Gaussian 16 at Sat Jul 25 18:02:07 2020.
