 Gaussian 16, Revision A.03,
 Gaussian 16:  EM64L-G16RevA.03 25-Dec-2016

 ---------------------------------------------------------------
 #P uLC-wPBE/cc-pVDZ iop(3/107=0384000000, 3/108=0384000000) opt
 ---------------------------------------------------------------

 --------------
 H52 C60 S5 O10
 --------------
 Symbolic Z-matrix:
 Charge =  0 Multiplicity = 1

 SCF Done:  E(ULC-wPBE) =  -5057.93511438     A.U. after   17 cycles
 SCF Done:  E(ULC-wPBE) =  -5058.03117870     A.U. after   14 cycles
 SCF Done:  E(ULC-wPBE) =  -5058.12711444     A.U. after   15 cycles
 SCF Done:  E(ULC-wPBE) =  -5058.15278048     A.U. after   14 cycles
 SCF Done:  E(ULC-wPBE) =  -5058.16077840     A.U. after   14 cycles
 SCF Done:  E(ULC-wPBE) =  -5058.16724649     A.U. after   15 cycles
 SCF Done:  E(ULC-wPBE) =  -5058.17282413     A.U. after   15 cycles
 SCF Done:  E(ULC-wPBE) =  -5058.17898024     A.U. after   14 cycles
 SCF Done:  E(ULC-wPBE) =  -5058.18304711     A.U. after   14 cycles
 SCF Done:  E(ULC-wPBE) =  -5058.18450408     A.U. after   17 cycles
 SCF Done:  E(ULC-wPBE) =  -5058.18670114     A.U. after   10 cycles
 SCF Done:  E(ULC-wPBE) =  -5058.18670246     A.U. after   10 cycles
 SCF Done:  E(ULC-wPBE) =  -5058.18670361     A.U. after   10 cycles
 SCF Done:  E(ULC-wPBE) =  -5058.18670406     A.U. after    8 cycles
 SCF Done:  E(ULC-wPBE) =  -5058.18670427     A.U. after    7 cycles
 SCF Done:  E(ULC-wPBE) =  -5058.18670445     A.U. after    7 cycles
 SCF Done:  E(ULC-wPBE) =  -5058.18670470     A.U. after    7 cycles
 SCF Done:  E(ULC-wPBE) =  -5058.18670468     A.U. after    7 cycles
 SCF Done:  E(ULC-wPBE) =  -5058.18670473     A.U. after    6 cycles
 SCF Done:  E(ULC-wPBE) =  -5058.18670472     A.U. after    5 cycles
 Optimization completed.
    -- Stationary point found.

                         Standard orientation:
 ---------------------------------------------------------------------
 Center     Atomic      Atomic             Coordinates (Angstroms)
 Number     Number       Type             X           Y           Z
 ---------------------------------------------------------------------
      1          6           0      -18.987596    1.634168   -0.772769
      2          6           0      -18.825879    0.345001   -1.251804
      3          6           0      -17.611682   -0.307240   -1.068672
      4          6           0      -16.542699    0.297088   -0.406265
      5          6           0      -16.726415    1.612869    0.066348
      6          8           0      -15.660447    2.175616    0.690642
      7          6           0      -15.773402    3.496921    1.159592
      8          6           0      -17.938838    2.270612   -0.116130
      9          6           0      -15.275140   -0.434374   -0.221684
     10          6           0      -15.109846   -1.797765   -0.098989
     11          8           0      -16.180937   -2.631783   -0.055492
     12          6           0      -15.924229   -3.989229    0.219435
     13          6           0      -13.747860   -2.207175   -0.026991
     14          6           0      -12.879889   -1.152725   -0.102108
     15         16           0      -13.723793    0.334744   -0.246157
     16          6           0      -11.408997   -1.200680   -0.051471
     17          6           0      -10.716268   -2.288475   -0.575395
     18          6           0       -9.330570   -2.331541   -0.513443
     19          6           0       -8.579592   -1.305878    0.062276
     20          6           0       -9.290582   -0.200680    0.574385
     21          8           0       -8.539961    0.790675    1.114846
     22          6           0       -9.186062    1.940939    1.605764
     23          6           0      -10.677890   -0.155892    0.521731
     24          6           0       -7.109819   -1.392396    0.115470
     25          6           0       -6.341523   -2.538227    0.144108
     26          8           0       -6.916822   -3.767509    0.206770
     27          6           0       -6.057741   -4.867532    0.395064
     28          6           0       -4.940301   -2.291485    0.103154
     29          6           0       -4.646046   -0.956678    0.039154
     30         16           0       -6.073346   -0.006121    0.041763
     31          6           0       -3.313415   -0.331219   -0.003571
     32          6           0       -3.063446    0.896536    0.601933
     33          6           0       -1.794398    1.456866    0.550071
     34          6           0       -0.731153    0.829464   -0.099213
     35          6           0       -0.993508   -0.418254   -0.702741
     36          8           0        0.058344   -1.010721   -1.320761
     37          6           0       -0.132698   -2.258173   -1.942719
     38          6           0       -2.262232   -0.981300   -0.658304
     39          6           0        0.598937    1.461784   -0.141572
     40          6           0        0.882480    2.811225   -0.099953
     41          8           0       -0.111440    3.735791   -0.072345
     42          6           0        0.267265    5.087421   -0.195052
     43          6           0        2.275208    3.105791   -0.072677
     44          6           0        3.048690    1.977986   -0.083957
     45         16           0        2.080466    0.563133   -0.164873
     46          6           0        4.519141    1.900195   -0.067769
     47          6           0        5.292071    2.891175   -0.665997
     48          6           0        6.677178    2.813655   -0.632146
     49          6           0        7.348284    1.758812   -0.011896
     50          6           0        6.555302    0.752064    0.576803
     51          8           0        7.227858   -0.270624    1.160831
     52          6           0        6.492541   -1.323781    1.736868
     53          6           0        5.168558    0.828482    0.552029
     54          6           0        8.820732    1.717863    0.008601
     55          6           0        9.686660    2.790980   -0.042225
     56          8           0        9.222634    4.067310   -0.036291
     57          6           0       10.180208    5.096674    0.056395
     58          6           0       11.059782    2.419735   -0.097446
     59          6           0       11.235480    1.063279   -0.094362
     60         16           0        9.730564    0.243347   -0.010511
     61          6           0       12.510641    0.327722   -0.133488
     62          6           0       13.603642    0.840475   -0.826236
     63          6           0       14.805469    0.146597   -0.848664
     64          6           0       14.970732   -1.074122   -0.194205
     65          6           0       13.852537   -1.592830    0.490369
     66          8           0       14.033464   -2.787507    1.105289
     67          6           0       12.944691   -3.378001    1.774348
     68          6           0       12.649358   -0.899248    0.522338
     69          6           0       16.266464   -1.776116   -0.235283
     70          6           0       17.516712   -1.207586   -0.364429
     71          8           0       17.673979    0.141381   -0.400353
     72          6           0       18.994306    0.631595   -0.377672
     73          6           0       18.573633   -2.161439   -0.459845
     74          6           0       18.104376   -3.438844   -0.409486
     75         16           0       16.412837   -3.502527   -0.224138
     76          1           0      -19.933617    2.162450   -0.908683
     77          1           0      -19.640099   -0.159451   -1.774819
     78          1           0      -17.480512   -1.320985   -1.444004
     79          1           0      -14.804406    3.744744    1.608854
     80          1           0      -15.982195    4.204151    0.339665
     81          1           0      -16.559377    3.589863    1.927361
     82          1           0      -18.076267    3.285944    0.254061
     83          1           0      -16.901529   -4.484345    0.267029
     84          1           0      -15.409768   -4.117335    1.186148
     85          1           0      -15.323522   -4.460971   -0.576218
     86          1           0      -13.415156   -3.234106    0.109666
     87          1           0      -11.260506   -3.098686   -1.062848
     88          1           0       -8.803919   -3.187759   -0.931037
     89          1           0       -9.761701    2.451471    0.816174
     90          1           0       -8.391165    2.607434    1.960416
     91          1           0       -9.856961    1.701039    2.447041
     92          1           0      -11.214531    0.690308    0.949664
     93          1           0       -5.464423   -4.765524    1.318716
     94          1           0       -5.375804   -5.004885   -0.460926
     95          1           0       -6.701679   -5.751056    0.480379
     96          1           0       -4.174101   -3.062306    0.157589
     97          1           0       -3.859980    1.412471    1.140984
     98          1           0       -1.614083    2.415823    1.032541
     99          1           0        0.840236   -2.541203   -2.361214
    100          1           0       -0.871079   -2.195300   -2.758945
    101          1           0       -0.453690   -3.027832   -1.221065
    102          1           0       -2.460273   -1.927135   -1.160534
    103          1           0       -0.663378    5.666343   -0.229431
    104          1           0        0.865418    5.424094    0.668120
    105          1           0        0.835742    5.265995   -1.122592
    106          1           0        2.695533    4.107823   -0.016353
    107          1           0        4.810209    3.718360   -1.189234
    108          1           0        7.267499    3.594674   -1.107932
    109          1           0        7.232056   -2.037301    2.118851
    110          1           0        5.866938   -0.971612    2.573454
    111          1           0        5.853622   -1.827895    0.993161
    112          1           0        4.569098    0.059605    1.038636
    113          1           0        9.618282    6.037258    0.101111
    114          1           0       10.791896    5.000445    0.968515
    115          1           0       10.843138    5.118292   -0.824681
    116          1           0       11.892034    3.120573   -0.104223
    117          1           0       13.509841    1.776887   -1.378123
    118          1           0       15.650591    0.559014   -1.397161
    119          1           0       12.599555   -2.754729    2.615661
    120          1           0       13.310916   -4.334918    2.164267
    121          1           0       12.100391   -3.564589    1.090334
    122          1           0       11.802896   -1.297000    1.081343
    123          1           0       18.917115    1.725029   -0.346057
    124          1           0       19.540518    0.284822    0.515135
    125          1           0       19.554467    0.339851   -1.281898
    126          1           0       19.628664   -1.913968   -0.557964
    127          1           0       18.687915   -4.356660   -0.449006
 ---------------------------------------------------------------------

 Alpha  occ. eigenvalues --   -0.89333  -0.89248  -0.89175  -0.89022  -0.88820
 Alpha  occ. eigenvalues --   -0.88351  -0.87986  -0.87899  -0.87589  -0.87394
 Alpha  occ. eigenvalues --   -0.86800  -0.86265  -0.85701  -0.85554  -0.85086
 Alpha  occ. eigenvalues --   -0.83754  -0.83414  -0.83250  -0.83196  -0.82917
 Alpha  occ. eigenvalues --   -0.82237  -0.81873  -0.81221  -0.80263  -0.79057
 Alpha  occ. eigenvalues --   -0.76672  -0.75468  -0.74438  -0.73683  -0.73394
 Alpha  occ. eigenvalues --   -0.72952  -0.72716  -0.72331  -0.72032  -0.71411
 Alpha  occ. eigenvalues --   -0.69617  -0.69181  -0.68893  -0.68673  -0.68419
 Alpha  occ. eigenvalues --   -0.67834  -0.67580  -0.67493  -0.67216  -0.67074
 Alpha  occ. eigenvalues --   -0.66477  -0.66205  -0.65967  -0.65475  -0.65061
 Alpha  occ. eigenvalues --   -0.63648  -0.62680  -0.62644  -0.62593  -0.62050
 Alpha  occ. eigenvalues --   -0.61432  -0.60771  -0.60649  -0.60280  -0.60143
 Alpha  occ. eigenvalues --   -0.59973  -0.59919  -0.59778  -0.59717  -0.59583
 Alpha  occ. eigenvalues --   -0.59572  -0.59523  -0.59469  -0.59445  -0.59253
 Alpha  occ. eigenvalues --   -0.58930  -0.58773  -0.58769  -0.58533  -0.58496
 Alpha  occ. eigenvalues --   -0.57866  -0.57624  -0.57234  -0.56478  -0.56182
 Alpha  occ. eigenvalues --   -0.55646  -0.55231  -0.55060  -0.55000  -0.54830
 Alpha  occ. eigenvalues --   -0.54653  -0.54515  -0.54299  -0.54190  -0.53499
 Alpha  occ. eigenvalues --   -0.53231  -0.53205  -0.53126  -0.52928  -0.52740
 Alpha  occ. eigenvalues --   -0.52578  -0.52501  -0.52424  -0.52169  -0.51823
 Alpha  occ. eigenvalues --   -0.51495  -0.51264  -0.50894  -0.50641  -0.50467
 Alpha  occ. eigenvalues --   -0.50258  -0.50011  -0.49587  -0.49563  -0.49373
 Alpha  occ. eigenvalues --   -0.49205  -0.49030  -0.48623  -0.48445  -0.48019
 Alpha  occ. eigenvalues --   -0.47824  -0.47288  -0.46906  -0.46728  -0.46488
 Alpha  occ. eigenvalues --   -0.46183  -0.45742  -0.45488  -0.45414  -0.45150
 Alpha  occ. eigenvalues --   -0.44935  -0.44877  -0.44803  -0.44761  -0.44520
 Alpha  occ. eigenvalues --   -0.44073  -0.43988  -0.43741  -0.43714  -0.43455
 Alpha  occ. eigenvalues --   -0.43308  -0.43056  -0.42877  -0.42790  -0.42722
 Alpha  occ. eigenvalues --   -0.42617  -0.42471  -0.42219  -0.42170  -0.41938
 Alpha  occ. eigenvalues --   -0.41910  -0.39369  -0.38691  -0.37842  -0.36717
 Alpha  occ. eigenvalues --   -0.35681  -0.33911  -0.33524  -0.33299  -0.33161
 Alpha  occ. eigenvalues --   -0.33032  -0.32557  -0.32540  -0.32477  -0.32296
 Alpha  occ. eigenvalues --   -0.32137  -0.30202  -0.29266  -0.27987  -0.26661
 Alpha  occ. eigenvalues --   -0.25756
 Alpha virt. eigenvalues --    0.01264   0.02239   0.03815   0.05441   0.07459
 Alpha virt. eigenvalues --    0.08473   0.08963   0.09082   0.09148   0.09274
 Alpha virt. eigenvalues --    0.09783   0.10517   0.11861   0.12933   0.13685

  Beta  occ. eigenvalues --  -88.30119 -88.30014 -88.29953 -88.29843 -88.29764
  Beta  occ. eigenvalues --  -19.00540 -19.00516 -19.00511 -19.00342 -19.00251
  Beta  occ. eigenvalues --  -19.00236 -19.00229 -19.00160 -19.00123 -18.99909
  Beta  occ. eigenvalues --  -10.17296 -10.17281 -10.17247 -10.17111 -10.16883
  Beta  occ. eigenvalues --  -10.16677 -10.16672 -10.16601 -10.16591 -10.16586
  Beta  occ. eigenvalues --  -10.16559 -10.16553 -10.16512 -10.16507 -10.16503
  Beta  occ. eigenvalues --  -10.16429 -10.16390 -10.16377 -10.16339 -10.16242
  Beta  occ. eigenvalues --  -10.14116 -10.14064 -10.14008 -10.13882 -10.13501
  Beta  occ. eigenvalues --  -10.13114 -10.13087 -10.13014 -10.12952 -10.12821
  Beta  occ. eigenvalues --  -10.12778 -10.12761 -10.12717 -10.12615 -10.12314
  Beta  occ. eigenvalues --  -10.12301 -10.12239 -10.12136 -10.11947 -10.11185
  Beta  occ. eigenvalues --  -10.10927 -10.10882 -10.10878 -10.10865 -10.10863
  Beta  occ. eigenvalues --  -10.10849 -10.10834 -10.10820 -10.10797 -10.10713
  Beta  occ. eigenvalues --  -10.10684 -10.10649 -10.10645 -10.10547 -10.10404
  Beta  occ. eigenvalues --  -10.10356 -10.10333 -10.10208 -10.10159 -10.09863
  Beta  occ. eigenvalues --   -7.90795  -7.90680  -7.90619  -7.90507  -7.90435
  Beta  occ. eigenvalues --   -5.92383  -5.92275  -5.92214  -5.92103  -5.92029
  Beta  occ. eigenvalues --   -5.91843  -5.91739  -5.91680  -5.91564  -5.91495
  Beta  occ. eigenvalues --   -5.91454  -5.91321  -5.91259  -5.91151  -5.91077
  Beta  occ. eigenvalues --   -1.20210  -1.20202  -1.20195  -1.20026  -1.19901
  Beta  occ. eigenvalues --   -1.19744  -1.19723  -1.19651  -1.19627  -1.19418
  Beta  occ. eigenvalues --   -1.03382  -1.03240  -1.03069  -1.02891  -1.02618
  Beta  occ. eigenvalues --   -1.00443  -1.00084  -0.99651  -0.99217  -0.98862
  Beta  occ. eigenvalues --   -0.94169  -0.93452  -0.92499  -0.91471  -0.90386
  Beta  occ. eigenvalues --   -0.89333  -0.89248  -0.89175  -0.89022  -0.88820
  Beta  occ. eigenvalues --   -0.88351  -0.87986  -0.87899  -0.87589  -0.87394
  Beta  occ. eigenvalues --   -0.86800  -0.86265  -0.85701  -0.85554  -0.85086
  Beta  occ. eigenvalues --   -0.83754  -0.83414  -0.83250  -0.83196  -0.82917
  Beta  occ. eigenvalues --   -0.82237  -0.81873  -0.81221  -0.80263  -0.79057
  Beta  occ. eigenvalues --   -0.76672  -0.75468  -0.74438  -0.73683  -0.73394
  Beta  occ. eigenvalues --   -0.72952  -0.72716  -0.72331  -0.72032  -0.71411
  Beta  occ. eigenvalues --   -0.69617  -0.69181  -0.68893  -0.68673  -0.68419
  Beta  occ. eigenvalues --   -0.67834  -0.67580  -0.67493  -0.67216  -0.67074
  Beta  occ. eigenvalues --   -0.66477  -0.66205  -0.65967  -0.65475  -0.65061
  Beta  occ. eigenvalues --   -0.63648  -0.62680  -0.62644  -0.62593  -0.62050
  Beta  occ. eigenvalues --   -0.61432  -0.60771  -0.60649  -0.60280  -0.60143
  Beta  occ. eigenvalues --   -0.59973  -0.59919  -0.59778  -0.59717  -0.59583
  Beta  occ. eigenvalues --   -0.59572  -0.59523  -0.59469  -0.59445  -0.59253
  Beta  occ. eigenvalues --   -0.58930  -0.58773  -0.58769  -0.58533  -0.58496
  Beta  occ. eigenvalues --   -0.57866  -0.57624  -0.57234  -0.56478  -0.56182
  Beta  occ. eigenvalues --   -0.55646  -0.55231  -0.55060  -0.55000  -0.54830
  Beta  occ. eigenvalues --   -0.54653  -0.54515  -0.54299  -0.54190  -0.53499
  Beta  occ. eigenvalues --   -0.53231  -0.53205  -0.53126  -0.52928  -0.52740
  Beta  occ. eigenvalues --   -0.52578  -0.52501  -0.52424  -0.52169  -0.51823
  Beta  occ. eigenvalues --   -0.51495  -0.51264  -0.50894  -0.50641  -0.50467
  Beta  occ. eigenvalues --   -0.50258  -0.50011  -0.49587  -0.49563  -0.49373
  Beta  occ. eigenvalues --   -0.49205  -0.49030  -0.48623  -0.48445  -0.48019
  Beta  occ. eigenvalues --   -0.47824  -0.47288  -0.46906  -0.46728  -0.46488
  Beta  occ. eigenvalues --   -0.46183  -0.45742  -0.45488  -0.45414  -0.45150
  Beta  occ. eigenvalues --   -0.44935  -0.44877  -0.44803  -0.44761  -0.44520
  Beta  occ. eigenvalues --   -0.44073  -0.43988  -0.43741  -0.43714  -0.43455
  Beta  occ. eigenvalues --   -0.43308  -0.43056  -0.42877  -0.42790  -0.42722
  Beta  occ. eigenvalues --   -0.42617  -0.42471  -0.42219  -0.42170  -0.41938
  Beta  occ. eigenvalues --   -0.41910  -0.39369  -0.38691  -0.37842  -0.36717
  Beta  occ. eigenvalues --   -0.35681  -0.33911  -0.33524  -0.33299  -0.33161
  Beta  occ. eigenvalues --   -0.33032  -0.32557  -0.32540  -0.32477  -0.32296
  Beta  occ. eigenvalues --   -0.32137  -0.30202  -0.29266  -0.27987  -0.26661
  Beta  occ. eigenvalues --   -0.25756
  Beta virt. eigenvalues --    0.01264   0.02239   0.03815   0.05441   0.07459
  Beta virt. eigenvalues --    0.08473   0.08963   0.09082   0.09148   0.09274
  Beta virt. eigenvalues --    0.09783   0.10517   0.11861   0.12933   0.13685

 Mulliken charges and spin densities:
               1          2
     1  C    0.008243  -0.000000
     2  C    0.006929   0.000000
     3  C    0.013151  -0.000000
     4  C   -0.008881  -0.000000
     5  C    0.108771  -0.000000
     6  O   -0.257807   0.000000
     7  C    0.049015   0.000000
     8  C   -0.049949   0.000000
     9  C   -0.182834  -0.000000
    10  C    0.156929   0.000000
    11  O   -0.261480   0.000000
    12  C    0.047189   0.000000
    13  C   -0.013395  -0.000000
    14  C   -0.159606   0.000000
    15  S    0.180194   0.000000
    16  C    0.046243  -0.000000
    17  C   -0.011547  -0.000000
    18  C    0.023757   0.000000
    19  C    0.006819   0.000000
    20  C    0.117240  -0.000000
    21  O   -0.259921   0.000000
    22  C    0.049181   0.000000
    23  C   -0.049935   0.000000
    24  C   -0.185111   0.000000
    25  C    0.152475  -0.000000
    26  O   -0.263250   0.000000
    27  C    0.048467  -0.000000
    28  C   -0.013417  -0.000000
    29  C   -0.160161  -0.000000
    30  S    0.190632   0.000000
    31  C    0.039359   0.000000
    32  C   -0.005939  -0.000000
    33  C    0.022547   0.000000
    34  C    0.004190  -0.000000
    35  C    0.119938   0.000000
    36  O   -0.259018  -0.000000
    37  C    0.050985  -0.000000
    38  C   -0.050285  -0.000000
    39  C   -0.183551   0.000000
    40  C    0.156340  -0.000000
    41  O   -0.262504   0.000000
    42  C    0.047373   0.000000
    43  C   -0.011443  -0.000000
    44  C   -0.159504   0.000000
    45  S    0.175361   0.000000
    46  C    0.045981  -0.000000
    47  C   -0.011646  -0.000000
    48  C    0.024204  -0.000000
    49  C    0.007382  -0.000000
    50  C    0.116796   0.000000
    51  O   -0.260421   0.000000
    52  C    0.049736   0.000000
    53  C   -0.048958  -0.000000
    54  C   -0.184317   0.000000
    55  C    0.153362   0.000000
    56  O   -0.263255   0.000000
    57  C    0.047586  -0.000000
    58  C   -0.010623  -0.000000
    59  C   -0.159517  -0.000000
    60  S    0.180694  -0.000000
    61  C    0.045053   0.000000
    62  C   -0.012168  -0.000000
    63  C    0.026382  -0.000000
    64  C    0.008759  -0.000000
    65  C    0.119038   0.000000
    66  O   -0.259537   0.000000
    67  C    0.048816   0.000000
    68  C   -0.050815  -0.000000
    69  C   -0.192465   0.000000
    70  C    0.138153   0.000000
    71  O   -0.261339  -0.000000
    72  C    0.045438  -0.000000
    73  C   -0.001948  -0.000000
    74  C   -0.138057   0.000000
    75  S    0.182101   0.000000
    76  H   -0.001160   0.000000
    77  H   -0.005042   0.000000
    78  H    0.000271   0.000000
    79  H    0.058529   0.000000
    80  H    0.049479  -0.000000
    81  H    0.049713   0.000000
    82  H    0.001535   0.000000
    83  H    0.058248  -0.000000
    84  H    0.049587  -0.000000
    85  H    0.046578  -0.000000
    86  H    0.004731  -0.000000
    87  H   -0.014530   0.000000
    88  H   -0.000572   0.000000
    89  H    0.051888  -0.000000
    90  H    0.060720  -0.000000
    91  H    0.052394   0.000000
    92  H    0.003888  -0.000000
    93  H    0.050049   0.000000
    94  H    0.044888   0.000000
    95  H    0.058234   0.000000
    96  H    0.001109   0.000000
    97  H   -0.004706  -0.000000
    98  H    0.000556   0.000000
    99  H    0.062721   0.000000
   100  H    0.053343  -0.000000
   101  H    0.045474   0.000000
   102  H   -0.006012  -0.000000
   103  H    0.059158  -0.000000
   104  H    0.048873  -0.000000
   105  H    0.048471   0.000000
   106  H    0.004922   0.000000
   107  H   -0.014142   0.000000
   108  H    0.000233  -0.000000
   109  H    0.058145  -0.000000
   110  H    0.053790   0.000000
   111  H    0.051934  -0.000000
   112  H    0.004992  -0.000000
   113  H    0.058197  -0.000000
   114  H    0.050427  -0.000000
   115  H    0.047487   0.000000
   116  H    0.005093  -0.000000
   117  H   -0.014091  -0.000000
   118  H    0.000400   0.000000
   119  H    0.052690   0.000000
   120  H    0.061022  -0.000000
   121  H    0.051558  -0.000000
   122  H    0.004145  -0.000000
   123  H    0.058467  -0.000000
   124  H    0.048553  -0.000000
   125  H    0.047644   0.000000
   126  H    0.007621   0.000000
   127  H    0.036290   0.000000
 Sum of Mulliken charges =  -0.00000  -0.00000

 Dipole moment (field-independent basis, Debye):
    X=              3.4532    Y=              0.1337    Z=              2.1930  Tot=              4.0929
 Quadrupole moment (field-independent basis, Debye-Ang):
   XX=           -385.9637   YY=           -375.4657   ZZ=           -469.2217
   XY=             12.8616   XZ=            -10.2487   YZ=              2.0213

 Normal termination of Gaussian 16 at Fri Jul 24 00:36:37 2020.
