 Gaussian 16, Revision A.03,
 Gaussian 16:  EM64L-G16RevA.03 25-Dec-2016

 ---------------------------------------------------------------
 #P uLC-wPBE/cc-pVDZ iop(3/107=0123800000, 3/108=0123800000) opt
 ---------------------------------------------------------------

 ------------
 H7 C10 S1 F1
 ------------
 Symbolic Z-matrix:
 Charge =  0 Multiplicity = 1

 SCF Done:  E(ULC-wPBE) =  -882.678249209     A.U. after   16 cycles
 SCF Done:  E(ULC-wPBE) =  -882.711146482     A.U. after   14 cycles
 SCF Done:  E(ULC-wPBE) =  -882.717202309     A.U. after   14 cycles
 SCF Done:  E(ULC-wPBE) =  -882.717583497     A.U. after   12 cycles
 SCF Done:  E(ULC-wPBE) =  -882.717598976     A.U. after   12 cycles
 SCF Done:  E(ULC-wPBE) =  -882.717708970     A.U. after   11 cycles
 SCF Done:  E(ULC-wPBE) =  -882.717716284     A.U. after   10 cycles
 SCF Done:  E(ULC-wPBE) =  -882.717720145     A.U. after   10 cycles
 SCF Done:  E(ULC-wPBE) =  -882.717729681     A.U. after   12 cycles
 SCF Done:  E(ULC-wPBE) =  -882.717742713     A.U. after   11 cycles
 SCF Done:  E(ULC-wPBE) =  -882.717726961     A.U. after   13 cycles
 SCF Done:  E(ULC-wPBE) =  -882.717753423     A.U. after   13 cycles
 SCF Done:  E(ULC-wPBE) =  -882.717752076     A.U. after   11 cycles
 SCF Done:  E(ULC-wPBE) =  -882.717755014     A.U. after   12 cycles
 SCF Done:  E(ULC-wPBE) =  -882.717754767     A.U. after   10 cycles
 SCF Done:  E(ULC-wPBE) =  -882.717755055     A.U. after   10 cycles
 Optimization completed.
    -- Stationary point found.

                         Standard orientation:
 ---------------------------------------------------------------------
 Center     Atomic      Atomic             Coordinates (Angstroms)
 Number     Number       Type             X           Y           Z
 ---------------------------------------------------------------------
      1          6           0        3.472596    0.263196   -0.028698
      2          6           0        2.781155    1.479382   -0.135571
      3          6           0        1.383659    1.497913   -0.127719
      4          6           0        0.618752    0.312632   -0.004672
      5          6           0        1.356274   -0.885322    0.091188
      6          9           0        0.685869   -2.065985    0.195424
      7          6           0        2.750496   -0.930485    0.082417
      8          6           0       -0.850904    0.364897    0.032798
      9          6           0       -1.644671    1.490659    0.219561
     10          6           0       -3.041679    1.224329    0.163274
     11          6           0       -3.315249   -0.107357   -0.068526
     12         16           0       -1.869077   -1.047164   -0.207133
     13          1           0        4.570876    0.240089   -0.038772
     14          1           0        3.334648    2.423165   -0.234780
     15          1           0        0.857760    2.455915   -0.234517
     16          1           0        3.244206   -1.907706    0.163938
     17          1           0       -1.229873    2.487689    0.410632
     18          1           0       -3.817075    1.988595    0.296041
     19          1           0       -4.290701   -0.598315   -0.151542
 ---------------------------------------------------------------------

 The electronic state is 1-A.
 Alpha  occ. eigenvalues --  -88.16924 -24.36215 -10.05455 -10.00651  -9.99975
 Alpha  occ. eigenvalues --   -9.99446  -9.98457  -9.98418  -9.98287  -9.97959
 Alpha  occ. eigenvalues --   -9.97553  -9.97514  -7.77174  -5.79247  -5.78782
 Alpha  occ. eigenvalues --   -5.78439  -1.19380  -0.87984  -0.85673  -0.77996
 Alpha  occ. eigenvalues --   -0.75266  -0.73729  -0.71333  -0.63908  -0.62718
 Alpha  occ. eigenvalues --   -0.58174  -0.56409  -0.54869  -0.52802  -0.50322
 Alpha  occ. eigenvalues --   -0.49217  -0.47700  -0.46175  -0.44075  -0.42340
 Alpha  occ. eigenvalues --   -0.41609  -0.41511  -0.40974  -0.39028  -0.38712
 Alpha  occ. eigenvalues --   -0.37610  -0.35848  -0.32325  -0.29076  -0.28810
 Alpha  occ. eigenvalues --   -0.25223
 Alpha virt. eigenvalues --   -0.01471   0.02052   0.04799   0.07205   0.09135
 Alpha virt. eigenvalues --    0.09630   0.11121   0.12380   0.14282   0.14866
 Alpha virt. eigenvalues --    0.16813   0.16987   0.17510   0.18282   0.22194

  Beta  occ. eigenvalues --  -88.16924 -24.36215 -10.05455 -10.00651  -9.99975
  Beta  occ. eigenvalues --   -9.99446  -9.98457  -9.98418  -9.98287  -9.97959
  Beta  occ. eigenvalues --   -9.97553  -9.97514  -7.77174  -5.79247  -5.78782
  Beta  occ. eigenvalues --   -5.78439  -1.19380  -0.87984  -0.85673  -0.77996
  Beta  occ. eigenvalues --   -0.75266  -0.73729  -0.71333  -0.63908  -0.62718
  Beta  occ. eigenvalues --   -0.58174  -0.56409  -0.54869  -0.52802  -0.50322
  Beta  occ. eigenvalues --   -0.49217  -0.47700  -0.46175  -0.44075  -0.42340
  Beta  occ. eigenvalues --   -0.41609  -0.41511  -0.40974  -0.39028  -0.38712
  Beta  occ. eigenvalues --   -0.37610  -0.35848  -0.32325  -0.29076  -0.28810
  Beta  occ. eigenvalues --   -0.25223
  Beta virt. eigenvalues --   -0.01471   0.02052   0.04799   0.07205   0.09135
  Beta virt. eigenvalues --    0.09630   0.11121   0.12380   0.14282   0.14866
  Beta virt. eigenvalues --    0.16813   0.16987   0.17510   0.18282   0.22194

 Mulliken charges and spin densities:
               1          2
     1  C    0.033337   0.000000
     2  C    0.041731   0.000000
     3  C   -0.017573  -0.000000
     4  C    0.065562  -0.000000
     5  C    0.062994   0.000000
     6  F   -0.127240  -0.000000
     7  C    0.034598  -0.000000
     8  C   -0.139925   0.000000
     9  C    0.011872  -0.000000
    10  C    0.074224   0.000000
    11  C   -0.125627  -0.000000
    12  S    0.155607   0.000000
    13  H   -0.013657   0.000000
    14  H   -0.017910  -0.000000
    15  H   -0.019954   0.000000
    16  H   -0.004448  -0.000000
    17  H   -0.016232  -0.000000
    18  H   -0.016602   0.000000
    19  H    0.019241  -0.000000
 Sum of Mulliken charges =  -0.00000  -0.00000

 Dipole moment (field-independent basis, Debye):
    X=              0.4632    Y=              1.2168    Z=             -0.0220  Tot=              1.3022
 Quadrupole moment (field-independent basis, Debye-Ang):
   XX=            -62.6211   YY=            -70.4413   ZZ=            -79.8103
   XY=             -0.3309   XZ=             -0.1359   YZ=              0.4584

 Normal termination of Gaussian 16 at Fri Jul 24 18:18:23 2020.
