 Gaussian 16, Revision A.03,
 Gaussian 16:  EM64L-G16RevA.03 25-Dec-2016

 ---------------------------------------------------------------
 #P uLC-wPBE/cc-pVDZ iop(3/107=0206300000, 3/108=0206300000) opt
 ---------------------------------------------------------------

 -----------------
 H27 C40 S10 N5 O5
 -----------------
 Symbolic Z-matrix:
 Charge =  0 Multiplicity = 1

 SCF Done:  E(ULC-wPBE) =  -6168.99521395     A.U. after   17 cycles
 SCF Done:  E(ULC-wPBE) =  -6169.07652655     A.U. after   14 cycles
 SCF Done:  E(ULC-wPBE) =  -6169.14155786     A.U. after   14 cycles
 SCF Done:  E(ULC-wPBE) =  -6169.15546604     A.U. after   13 cycles
 SCF Done:  E(ULC-wPBE) =  -6169.15984200     A.U. after   14 cycles
 SCF Done:  E(ULC-wPBE) =  -6169.16081755     A.U. after   13 cycles
 SCF Done:  E(ULC-wPBE) =  -6169.16157289     A.U. after   13 cycles
 SCF Done:  E(ULC-wPBE) =  -6169.16173228     A.U. after   13 cycles
 SCF Done:  E(ULC-wPBE) =  -6169.16180983     A.U. after   12 cycles
 SCF Done:  E(ULC-wPBE) =  -6169.16183370     A.U. after   11 cycles
 SCF Done:  E(ULC-wPBE) =  -6169.16247935     A.U. after   13 cycles
 SCF Done:  E(ULC-wPBE) =  -6169.16248510     A.U. after   11 cycles
 SCF Done:  E(ULC-wPBE) =  -6169.16248989     A.U. after   11 cycles
 SCF Done:  E(ULC-wPBE) =  -6169.16249007     A.U. after   12 cycles
 SCF Done:  E(ULC-wPBE) =  -6169.16249235     A.U. after   12 cycles
 SCF Done:  E(ULC-wPBE) =  -6169.16249356     A.U. after   11 cycles
 SCF Done:  E(ULC-wPBE) =  -6169.16249390     A.U. after   10 cycles
 SCF Done:  E(ULC-wPBE) =  -6169.16249415     A.U. after   10 cycles
 SCF Done:  E(ULC-wPBE) =  -6169.16249421     A.U. after    9 cycles
 SCF Done:  E(ULC-wPBE) =  -6169.16249420     A.U. after    6 cycles
 Optimization completed on the basis of negligible forces.
    -- Stationary point found.

                         Standard orientation:
 ---------------------------------------------------------------------
 Center     Atomic      Atomic             Coordinates (Angstroms)
 Number     Number       Type             X           Y           Z
 ---------------------------------------------------------------------
      1          6           0      -18.028859   -2.400323   -0.493058
      2          6           0      -17.030377   -3.264288   -0.864734
      3          7           0      -15.748050   -2.786260   -0.764421
      4          6           0      -15.748781   -1.548037   -0.313915
      5         16           0      -17.346902   -0.893593    0.016224
      6          6           0      -14.531404   -0.788429   -0.109298
      7          6           0      -14.365173    0.511059    0.355089
      8          8           0      -15.459330    1.246199    0.688551
      9          6           0      -15.226263    2.566817    1.165156
     10          6           0      -12.999323    0.913188    0.429431
     11          6           0      -12.134365   -0.086823    0.018129
     12         16           0      -12.992955   -1.516519   -0.477433
     13          6           0      -10.679618   -0.047677   -0.031171
     14          6           0       -9.779730   -1.095570   -0.026717
     15          7           0       -8.453928   -0.770052   -0.077818
     16          6           0       -8.295187    0.538687   -0.118373
     17         16           0       -9.794473    1.456015   -0.108672
     18          6           0       -6.994114    1.168851   -0.168758
     19          6           0       -6.665182    2.519961   -0.214370
     20          8           0       -7.658684    3.447326   -0.216729
     21          6           0       -7.263438    4.814619   -0.262381
     22          6           0       -5.260567    2.758791   -0.239246
     23          6           0       -4.528928    1.582553   -0.224242
     24         16           0       -5.558997    0.182142   -0.180408
     25          6           0       -3.077967    1.456633   -0.264685
     26          6           0       -2.161891    2.335203   -0.810269
     27          7           0       -0.843867    1.992949   -0.708717
     28          6           0       -0.708898    0.835337   -0.089188
     29         16           0       -2.220030    0.100366    0.423846
     30          6           0        0.577368    0.219299    0.149827
     31          6           0        0.875728   -0.984808    0.779463
     32          8           0       -0.135680   -1.746841    1.269482
     33          6           0        0.224414   -2.971321    1.902010
     34          6           0        2.272584   -1.261529    0.833556
     35          6           0        3.028760   -0.262873    0.242535
     36         16           0        2.030056    1.009418   -0.398400
     37          6           0        4.477619   -0.191416    0.120621
     38          6           0        5.281164    0.916148   -0.069005
     39          7           0        6.626770    0.695552   -0.145426
     40          6           0        6.898161   -0.588616   -0.012349
     41         16           0        5.487424   -1.613953    0.205794
     42          6           0        8.245940   -1.111921   -0.045555
     43          6           0        8.689157   -2.425148    0.077581
     44          8           0        7.781120   -3.419790    0.256967
     45          6           0        8.290957   -4.744303    0.377465
     46          6           0       10.106942   -2.551175    0.009507
     47          6           0       10.732765   -1.329588   -0.177217
     48         16           0        9.587608   -0.024452   -0.270898
     49          6           0       12.164415   -1.094277   -0.313658
     50          6           0       13.127652   -1.961009   -0.792135
     51          7           0       14.414508   -1.503259   -0.808083
     52          6           0       14.475759   -0.267718   -0.350275
     53         16           0       12.931293    0.405165    0.146829
     54          6           0       15.714532    0.477707   -0.260951
     55          6           0       15.929319    1.774560    0.193942
     56          8           0       14.875403    2.508868    0.636227
     57          6           0       15.151158    3.833773    1.080111
     58          6           0       17.301464    2.171866    0.128821
     59          6           0       18.095016    1.166343   -0.373367
     60         16           0       17.209359   -0.256049   -0.770508
     61          1           0      -19.109687   -2.564610   -0.490741
     62          1           0      -17.191581   -4.286125   -1.227248
     63          1           0      -16.220536    2.994611    1.374928
     64          1           0      -14.626391    2.561013    2.098260
     65          1           0      -14.714208    3.188342    0.402216
     66          1           0      -12.651999    1.885853    0.790386
     67          1           0      -10.069426   -2.151830    0.029961
     68          1           0       -6.662701    5.092056    0.627742
     69          1           0       -6.684941    5.037442   -1.182021
     70          1           0       -8.196892    5.401150   -0.268738
     71          1           0       -4.792265    3.746906   -0.238267
     72          1           0       -2.435126    3.261351   -1.329355
     73          1           0        0.861408   -2.793519    2.792308
     74          1           0        0.751308   -3.648468    1.199338
     75          1           0       -0.722139   -3.439222    2.218615
     76          1           0        2.718168   -2.142388    1.305114
     77          1           0        4.902398    1.942713   -0.143946
     78          1           0        8.846577   -5.047351   -0.533220
     79          1           0        7.412278   -5.398275    0.502156
     80          1           0        8.950784   -4.844441    1.263255
     81          1           0       10.659527   -3.488128    0.121086
     82          1           0       12.913034   -2.966464   -1.172698
     83          1           0       15.844264    3.833615    1.946005
     84          1           0       15.578279    4.452269    0.264582
     85          1           0       14.182041    4.258319    1.389629
     86          1           0       17.687272    3.148192    0.435692
     87          1           0       19.176887    1.194442   -0.531722
 ---------------------------------------------------------------------

 The electronic state is 1-A.
 Alpha  occ. eigenvalues --  -88.22334 -88.22329 -88.22297 -88.22256 -88.22076
 Alpha  occ. eigenvalues --  -88.22058 -88.22004 -88.21893 -88.21560 -88.21259
 Alpha  occ. eigenvalues --  -18.93504 -18.93408 -18.93248 -18.93216 -18.92724
 Alpha  occ. eigenvalues --  -14.11449 -14.11338 -14.11185 -14.10988 -14.10303
 Alpha  occ. eigenvalues --  -10.09028 -10.08928 -10.08858 -10.08819 -10.08798
 Alpha  occ. eigenvalues --  -10.08722 -10.08589 -10.08434 -10.08427 -10.08328
 Alpha  occ. eigenvalues --  -10.08226 -10.08194 -10.08129 -10.07818 -10.07699
 Alpha  occ. eigenvalues --  -10.06935 -10.06788 -10.06638 -10.06227 -10.05815
 Alpha  occ. eigenvalues --  -10.05711 -10.05586 -10.05548 -10.05341 -10.05141
 Alpha  occ. eigenvalues --  -10.05125 -10.04937 -10.04847 -10.04821 -10.04665
 Alpha  occ. eigenvalues --  -10.04564 -10.04409 -10.04253 -10.03548 -10.03478
 Alpha  occ. eigenvalues --  -10.03345 -10.03223 -10.03053 -10.02938 -10.02587
 Alpha  occ. eigenvalues --   -7.82700  -7.82671  -7.82632  -7.82631  -7.82429
 Alpha  occ. eigenvalues --   -7.82412  -7.82337  -7.82270  -7.81895  -7.81634
 Alpha  occ. eigenvalues --   -5.84695  -5.84685  -5.84658  -5.84630  -5.84444
 Alpha  occ. eigenvalues --   -5.84425  -5.84365  -5.84267  -5.84241  -5.84211
 Alpha  occ. eigenvalues --   -5.84188  -5.84178  -5.83972  -5.83971  -5.83926
 Alpha  occ. eigenvalues --   -5.83895  -5.83845  -5.83816  -5.83802  -5.83769
 Alpha  occ. eigenvalues --   -5.83730  -5.83616  -5.83572  -5.83504  -5.83453
 Alpha  occ. eigenvalues --   -5.83437  -5.83408  -5.83163  -5.82991  -5.82806
 Alpha  occ. eigenvalues --   -1.11780  -1.11687  -1.11543  -1.11494  -1.11021
 Alpha  occ. eigenvalues --   -1.00586  -1.00479  -1.00308  -1.00112  -0.99304
 Alpha  occ. eigenvalues --   -0.94204  -0.93937  -0.93677  -0.93548  -0.93260
 Alpha  occ. eigenvalues --   -0.86611  -0.86319  -0.86079  -0.85795  -0.83828
 Alpha  occ. eigenvalues --   -0.83733  -0.83288  -0.82728  -0.82104  -0.81366
 Alpha  occ. eigenvalues --   -0.80909  -0.80833  -0.80687  -0.80556  -0.80190
 Alpha  occ. eigenvalues --   -0.78781  -0.78232  -0.77296  -0.77084  -0.76716
 Alpha  occ. eigenvalues --   -0.75375  -0.74908  -0.74429  -0.73399  -0.72710
 Alpha  occ. eigenvalues --   -0.69451  -0.68817  -0.67935  -0.67534  -0.66425
 Alpha  occ. eigenvalues --   -0.65343  -0.65109  -0.64129  -0.63600  -0.62980
 Alpha  occ. eigenvalues --   -0.62673  -0.62039  -0.61647  -0.61298  -0.61127
 Alpha  occ. eigenvalues --   -0.60498  -0.60477  -0.60216  -0.59808  -0.59448
 Alpha  occ. eigenvalues --   -0.58243  -0.57699  -0.57404  -0.56113  -0.55916
 Alpha  occ. eigenvalues --   -0.54299  -0.54209  -0.54175  -0.54091  -0.54034
 Alpha  occ. eigenvalues --   -0.53999  -0.53823  -0.53646  -0.53598  -0.53484
 Alpha  occ. eigenvalues --   -0.52922  -0.52216  -0.51954  -0.51400  -0.51230
 Alpha  occ. eigenvalues --   -0.50869  -0.50283  -0.50119  -0.49710  -0.49708
 Alpha  occ. eigenvalues --   -0.49539  -0.49391  -0.49229  -0.49018  -0.48738
 Alpha  occ. eigenvalues --   -0.48317  -0.47863  -0.47525  -0.47272  -0.47138
 Alpha  occ. eigenvalues --   -0.46773  -0.46547  -0.46397  -0.46252  -0.46004
 Alpha  occ. eigenvalues --   -0.45697  -0.45342  -0.45194  -0.44865  -0.44650
 Alpha  occ. eigenvalues --   -0.44124  -0.43473  -0.43359  -0.43042  -0.42821
 Alpha  occ. eigenvalues --   -0.42173  -0.41795  -0.41710  -0.41515  -0.41395
 Alpha  occ. eigenvalues --   -0.40972  -0.40923  -0.40727  -0.40647  -0.40334
 Alpha  occ. eigenvalues --   -0.40128  -0.39902  -0.39681  -0.39593  -0.39517
 Alpha  occ. eigenvalues --   -0.39289  -0.37686  -0.36971  -0.36056  -0.34989
 Alpha  occ. eigenvalues --   -0.34470  -0.34227  -0.34114  -0.34040  -0.33619
 Alpha  occ. eigenvalues --   -0.33433  -0.33384  -0.33246  -0.33019  -0.32743
 Alpha  occ. eigenvalues --   -0.32462  -0.31301  -0.30950  -0.30878  -0.30691
 Alpha  occ. eigenvalues --   -0.30318  -0.28986  -0.27729  -0.26172  -0.24622
 Alpha  occ. eigenvalues --   -0.23501
 Alpha virt. eigenvalues --   -0.03261  -0.02102  -0.00655   0.00870   0.02127
 Alpha virt. eigenvalues --    0.04331   0.05483   0.06161   0.06522   0.06955
 Alpha virt. eigenvalues --    0.07699   0.07974   0.08229   0.08448   0.08580

  Beta  occ. eigenvalues --  -88.22334 -88.22329 -88.22297 -88.22256 -88.22076
  Beta  occ. eigenvalues --  -88.22058 -88.22004 -88.21893 -88.21560 -88.21259
  Beta  occ. eigenvalues --  -18.93504 -18.93408 -18.93248 -18.93216 -18.92724
  Beta  occ. eigenvalues --  -14.11449 -14.11338 -14.11185 -14.10988 -14.10303
  Beta  occ. eigenvalues --  -10.09028 -10.08928 -10.08858 -10.08819 -10.08798
  Beta  occ. eigenvalues --  -10.08722 -10.08589 -10.08434 -10.08427 -10.08328
  Beta  occ. eigenvalues --  -10.08226 -10.08194 -10.08129 -10.07818 -10.07699
  Beta  occ. eigenvalues --  -10.06935 -10.06788 -10.06638 -10.06227 -10.05815
  Beta  occ. eigenvalues --  -10.05711 -10.05586 -10.05548 -10.05341 -10.05141
  Beta  occ. eigenvalues --  -10.05125 -10.04937 -10.04847 -10.04821 -10.04665
  Beta  occ. eigenvalues --  -10.04564 -10.04409 -10.04253 -10.03548 -10.03478
  Beta  occ. eigenvalues --  -10.03345 -10.03223 -10.03053 -10.02938 -10.02587
  Beta  occ. eigenvalues --   -7.82700  -7.82671  -7.82632  -7.82631  -7.82429
  Beta  occ. eigenvalues --   -7.82412  -7.82337  -7.82270  -7.81895  -7.81634
  Beta  occ. eigenvalues --   -5.84695  -5.84685  -5.84658  -5.84630  -5.84444
  Beta  occ. eigenvalues --   -5.84425  -5.84365  -5.84267  -5.84241  -5.84211
  Beta  occ. eigenvalues --   -5.84188  -5.84178  -5.83972  -5.83971  -5.83926
  Beta  occ. eigenvalues --   -5.83895  -5.83845  -5.83816  -5.83802  -5.83769
  Beta  occ. eigenvalues --   -5.83730  -5.83616  -5.83572  -5.83504  -5.83453
  Beta  occ. eigenvalues --   -5.83437  -5.83408  -5.83163  -5.82991  -5.82806
  Beta  occ. eigenvalues --   -1.11780  -1.11687  -1.11543  -1.11494  -1.11021
  Beta  occ. eigenvalues --   -1.00586  -1.00479  -1.00308  -1.00112  -0.99304
  Beta  occ. eigenvalues --   -0.94204  -0.93937  -0.93677  -0.93548  -0.93260
  Beta  occ. eigenvalues --   -0.86611  -0.86319  -0.86079  -0.85795  -0.83828
  Beta  occ. eigenvalues --   -0.83733  -0.83288  -0.82728  -0.82104  -0.81366
  Beta  occ. eigenvalues --   -0.80909  -0.80833  -0.80687  -0.80556  -0.80190
  Beta  occ. eigenvalues --   -0.78781  -0.78232  -0.77296  -0.77084  -0.76716
  Beta  occ. eigenvalues --   -0.75375  -0.74908  -0.74429  -0.73399  -0.72710
  Beta  occ. eigenvalues --   -0.69451  -0.68817  -0.67935  -0.67534  -0.66425
  Beta  occ. eigenvalues --   -0.65343  -0.65109  -0.64129  -0.63600  -0.62980
  Beta  occ. eigenvalues --   -0.62673  -0.62039  -0.61647  -0.61298  -0.61127
  Beta  occ. eigenvalues --   -0.60498  -0.60477  -0.60216  -0.59808  -0.59448
  Beta  occ. eigenvalues --   -0.58243  -0.57699  -0.57404  -0.56113  -0.55916
  Beta  occ. eigenvalues --   -0.54299  -0.54209  -0.54175  -0.54091  -0.54034
  Beta  occ. eigenvalues --   -0.53999  -0.53823  -0.53646  -0.53598  -0.53484
  Beta  occ. eigenvalues --   -0.52922  -0.52216  -0.51954  -0.51400  -0.51230
  Beta  occ. eigenvalues --   -0.50869  -0.50283  -0.50119  -0.49710  -0.49708
  Beta  occ. eigenvalues --   -0.49539  -0.49391  -0.49229  -0.49018  -0.48738
  Beta  occ. eigenvalues --   -0.48317  -0.47863  -0.47525  -0.47272  -0.47138
  Beta  occ. eigenvalues --   -0.46773  -0.46547  -0.46397  -0.46252  -0.46004
  Beta  occ. eigenvalues --   -0.45697  -0.45342  -0.45194  -0.44865  -0.44650
  Beta  occ. eigenvalues --   -0.44124  -0.43473  -0.43359  -0.43042  -0.42821
  Beta  occ. eigenvalues --   -0.42173  -0.41795  -0.41710  -0.41515  -0.41395
  Beta  occ. eigenvalues --   -0.40972  -0.40923  -0.40727  -0.40647  -0.40334
  Beta  occ. eigenvalues --   -0.40128  -0.39902  -0.39681  -0.39593  -0.39517
  Beta  occ. eigenvalues --   -0.39289  -0.37686  -0.36971  -0.36056  -0.34989
  Beta  occ. eigenvalues --   -0.34470  -0.34227  -0.34114  -0.34040  -0.33619
  Beta  occ. eigenvalues --   -0.33433  -0.33384  -0.33246  -0.33019  -0.32743
  Beta  occ. eigenvalues --   -0.32462  -0.31301  -0.30950  -0.30878  -0.30691
  Beta  occ. eigenvalues --   -0.30318  -0.28986  -0.27729  -0.26172  -0.24622
  Beta  occ. eigenvalues --   -0.23501
  Beta virt. eigenvalues --   -0.03261  -0.02102  -0.00655   0.00870   0.02127
  Beta virt. eigenvalues --    0.04331   0.05483   0.06161   0.06522   0.06955
  Beta virt. eigenvalues --    0.07699   0.07974   0.08229   0.08448   0.08580

 Mulliken charges and spin densities:
               1          2
     1  C   -0.174903   0.000000
     2  C    0.125957   0.000000
     3  N   -0.204324   0.000000
     4  C    0.020501  -0.000000
     5  S    0.155151  -0.000000
     6  C   -0.156189   0.000000
     7  C    0.138763  -0.000000
     8  O   -0.246830  -0.000000
     9  C    0.061541   0.000000
    10  C    0.009833   0.000000
    11  C   -0.122826   0.000000
    12  S    0.205905   0.000000
    13  C   -0.176921  -0.000000
    14  C    0.132489   0.000000
    15  N   -0.200884  -0.000000
    16  C    0.047122   0.000000
    17  S    0.151093   0.000000
    18  C   -0.169086  -0.000000
    19  C    0.137483  -0.000000
    20  O   -0.247039   0.000000
    21  C    0.061529  -0.000000
    22  C    0.012431   0.000000
    23  C   -0.122583   0.000000
    24  S    0.213208  -0.000000
    25  C   -0.181136  -0.000000
    26  C    0.133581  -0.000000
    27  N   -0.201485  -0.000000
    28  C    0.044704   0.000000
    29  S    0.170265   0.000000
    30  C   -0.167672  -0.000000
    31  C    0.138823   0.000000
    32  O   -0.245895  -0.000000
    33  C    0.060670  -0.000000
    34  C    0.012667  -0.000000
    35  C   -0.120174   0.000000
    36  S    0.207540  -0.000000
    37  C   -0.179271  -0.000000
    38  C    0.133552  -0.000000
    39  N   -0.200731   0.000000
    40  C    0.048257  -0.000000
    41  S    0.153253   0.000000
    42  C   -0.169749   0.000000
    43  C    0.137897  -0.000000
    44  O   -0.247015   0.000000
    45  C    0.061243   0.000000
    46  C    0.013374   0.000000
    47  C   -0.121636  -0.000000
    48  S    0.214129  -0.000000
    49  C   -0.182317  -0.000000
    50  C    0.133042   0.000000
    51  N   -0.200578   0.000000
    52  C    0.056337   0.000000
    53  S    0.171485   0.000000
    54  C   -0.183024  -0.000000
    55  C    0.126349  -0.000000
    56  O   -0.245020  -0.000000
    57  C    0.059318  -0.000000
    58  C    0.031799   0.000000
    59  C   -0.121804  -0.000000
    60  S    0.208295   0.000000
    61  H    0.021521   0.000000
    62  H   -0.001420  -0.000000
    63  H    0.055175  -0.000000
    64  H    0.048706   0.000000
    65  H    0.047565  -0.000000
    66  H   -0.008948  -0.000000
    67  H    0.008674  -0.000000
    68  H    0.050147  -0.000000
    69  H    0.049464   0.000000
    70  H    0.055160  -0.000000
    71  H   -0.010848  -0.000000
    72  H   -0.001471   0.000000
    73  H    0.049977   0.000000
    74  H    0.049391  -0.000000
    75  H    0.059272   0.000000
    76  H   -0.007005  -0.000000
    77  H    0.009094  -0.000000
    78  H    0.049964  -0.000000
    79  H    0.055879  -0.000000
    80  H    0.050637  -0.000000
    81  H   -0.010280  -0.000000
    82  H   -0.001031   0.000000
    83  H    0.048772   0.000000
    84  H    0.049314   0.000000
    85  H    0.059483  -0.000000
    86  H   -0.003941   0.000000
    87  H    0.026253  -0.000000
 Sum of Mulliken charges =  -0.00000   0.00000

 Dipole moment (field-independent basis, Debye):
    X=              5.1985    Y=              3.3324    Z=              3.9715  Tot=              7.3418
 Quadrupole moment (field-independent basis, Debye-Ang):
   XX=           -319.7807   YY=           -342.8191   ZZ=           -416.5160
   XY=            -36.7904   XZ=              4.2911   YZ=             -1.0467

 Normal termination of Gaussian 16 at Fri Jul 24 00:30:08 2020.
