 Gaussian 16, Revision A.03,
 Gaussian 16:  EM64L-G16RevA.03 25-Dec-2016

 ---------------------------------------------------------------
 #P uLC-wPBE/cc-pVDZ iop(3/107=0115300000, 3/108=0115300000) opt
 ---------------------------------------------------------------

 ----------
 H32 C50 S5
 ----------
 Symbolic Z-matrix:
 Charge =  0 Multiplicity = 1

 SCF Done:  E(ULC-wPBE) =  -3912.83880053     A.U. after   19 cycles
 SCF Done:  E(ULC-wPBE) =  -3912.91750355     A.U. after   15 cycles
 SCF Done:  E(ULC-wPBE) =  -3912.98012156     A.U. after   15 cycles
 SCF Done:  E(ULC-wPBE) =  -3912.99622312     A.U. after   14 cycles
 SCF Done:  E(ULC-wPBE) =  -3913.00239004     A.U. after   15 cycles
 SCF Done:  E(ULC-wPBE) =  -3913.00420602     A.U. after   14 cycles
 SCF Done:  E(ULC-wPBE) =  -3913.00518199     A.U. after   13 cycles
 SCF Done:  E(ULC-wPBE) =  -3913.00543459     A.U. after   13 cycles
 SCF Done:  E(ULC-wPBE) =  -3913.00555603     A.U. after   13 cycles
 SCF Done:  E(ULC-wPBE) =  -3913.00560659     A.U. after   13 cycles
 SCF Done:  E(ULC-wPBE) =  -3913.00564247     A.U. after   13 cycles
 SCF Done:  E(ULC-wPBE) =  -3913.00565830     A.U. after   13 cycles
 SCF Done:  E(ULC-wPBE) =  -3913.00566275     A.U. after   12 cycles
 SCF Done:  E(ULC-wPBE) =  -3913.00566411     A.U. after    8 cycles
 SCF Done:  E(ULC-wPBE) =  -3913.00566454     A.U. after    8 cycles
 SCF Done:  E(ULC-wPBE) =  -3913.00566468     A.U. after    8 cycles
 SCF Done:  E(ULC-wPBE) =  -3913.00566508     A.U. after    7 cycles
 SCF Done:  E(ULC-wPBE) =  -3913.00566506     A.U. after    7 cycles
 SCF Done:  E(ULC-wPBE) =  -3913.00566497     A.U. after    6 cycles
 SCF Done:  E(ULC-wPBE) =  -3913.00566493     A.U. after    6 cycles
 Optimization completed.
    -- Stationary point found.

                         Standard orientation:
 ---------------------------------------------------------------------
 Center     Atomic      Atomic             Coordinates (Angstroms)
 Number     Number       Type             X           Y           Z
 ---------------------------------------------------------------------
      1          6           0       19.287233    2.090505    0.113030
      2          6           0       18.204134    2.863641   -0.329892
      3          6           0       16.915630    2.318234   -0.368842
      4          6           0       16.678351    0.987938    0.044683
      5          6           0       17.777857    0.223058    0.497906
      6          6           0       19.066661    0.767319    0.524582
      7          6           0       15.332120    0.397611    0.004857
      8          6           0       14.970026   -0.938651   -0.098642
      9          6           0       13.565354   -1.150669   -0.110090
     10          6           0       12.823388    0.019517   -0.015195
     11         16           0       13.897721    1.400863    0.105794
     12          6           0       11.365304    0.186400    0.002561
     13          6           0       10.523527   -0.879985    0.394411
     14          6           0        9.135578   -0.737745    0.405221
     15          6           0        8.518140    0.476982    0.028485
     16          6           0        9.359846    1.543489   -0.363153
     17          6           0       10.747814    1.401128   -0.374111
     18          6           0        7.060152    0.643486    0.046046
     19          6           0        6.317217    1.813611    0.137974
     20          6           0        4.913187    1.601097    0.128232
     21          6           0        4.551128    0.263723    0.028692
     22         16           0        5.986915   -0.738964   -0.070735
     23          6           0        3.208134   -0.326644   -0.008014
     24          6           0        2.093713    0.444021   -0.412442
     25          6           0        0.810389   -0.102649   -0.441941
     26          6           0        0.575151   -1.446791   -0.072038
     27          6           0        1.689536   -2.217359    0.332674
     28          6           0        2.972848   -1.670722    0.362120
     29          6           0       -0.767630   -2.037643   -0.109491
     30          6           0       -1.128765   -3.375515   -0.206074
     31          6           0       -2.532625   -3.588780   -0.217735
     32          6           0       -3.276321   -2.418739   -0.130479
     33         16           0       -2.204106   -1.035429   -0.015427
     34          6           0       -4.734469   -2.253795   -0.117734
     35          6           0       -5.352726   -1.041479   -0.498200
     36          6           0       -6.741599   -0.903544   -0.491222
     37          6           0       -7.582487   -1.970898   -0.103314
     38          6           0       -6.963524   -3.182307    0.285197
     39          6           0       -5.575643   -3.320201    0.278120
     40          6           0       -9.044629   -1.845624   -0.101188
     41          6           0      -10.004902   -2.846575   -0.175594
     42          6           0      -11.339226   -2.360979   -0.151507
     43          6           0      -11.428776   -0.977996   -0.058143
     44         16           0       -9.822442   -0.277953    0.017501
     45          6           0      -12.628908   -0.134163   -0.011579
     46          6           0      -12.601329    1.225508   -0.394859
     47          6           0      -13.753765    2.012322   -0.355425
     48          6           0      -14.990963    1.479258    0.069742
     49          6           0      -15.017227    0.120507    0.460996
     50          6           0      -13.865872   -0.666377    0.421226
     51          6           0      -16.215212    2.290976    0.106051
     52          6           0      -17.537499    1.874227    0.037366
     53          6           0      -18.477641    2.944101    0.102029
     54          6           0      -17.872470    4.177472    0.222444
     55         16           0      -16.144472    4.038423    0.263124
     56          1           0       20.299450    2.518066    0.140152
     57          1           0       18.364055    3.900705   -0.657984
     58          1           0       16.078024    2.925648   -0.742660
     59          1           0       17.612265   -0.803642    0.853445
     60          1           0       19.906317    0.154385    0.882655
     61          1           0       15.706098   -1.745445   -0.202855
     62          1           0       13.102654   -2.138868   -0.223858
     63          1           0       10.968187   -1.828593    0.725738
     64          1           0        8.513196   -1.579920    0.741945
     65          1           0        8.915351    2.492256   -0.694273
     66          1           0       11.370302    2.243283   -0.710613
     67          1           0        6.779347    2.802394    0.248487
     68          1           0        4.177772    2.408687    0.230447
     69          1           0        2.241837    1.482719   -0.738798
     70          1           0       -0.028785    0.518663   -0.787967
     71          1           0        1.541466   -3.256024    0.659170
     72          1           0        3.812079   -2.291891    0.708251
     73          1           0       -0.392753   -4.182996   -0.304682
     74          1           0       -2.994065   -4.578096   -0.326399
     75          1           0       -4.731668   -0.197331   -0.832129
     76          1           0       -7.187740    0.046629   -0.819735
     77          1           0       -7.583670   -4.021116    0.630667
     78          1           0       -5.129160   -4.264937    0.618206
     79          1           0       -9.748444   -3.907719   -0.283837
     80          1           0      -12.221030   -3.007674   -0.239229
     81          1           0      -11.661732    1.668021   -0.757079
     82          1           0      -13.699832    3.059625   -0.687193
     83          1           0      -15.953536   -0.316842    0.834743
     84          1           0      -13.916745   -1.709062    0.764518
     85          1           0      -17.821097    0.821791   -0.087538
     86          1           0      -19.565329    2.809348    0.053762
     87          1           0      -18.339929    5.165092    0.294075
 ---------------------------------------------------------------------

 The electronic state is 1-A.
 Alpha  occ. eigenvalues --  -88.16781 -88.16764 -88.16743 -88.16703 -88.16664
 Alpha  occ. eigenvalues --  -10.00325 -10.00325 -10.00303 -10.00302 -10.00288
 Alpha  occ. eigenvalues --  -10.00287 -10.00187 -10.00161 -10.00046  -9.99370
 Alpha  occ. eigenvalues --   -9.99076  -9.99072  -9.99072  -9.99069  -9.99029
 Alpha  occ. eigenvalues --   -9.99017  -9.98991  -9.98966  -9.98872  -9.97731
 Alpha  occ. eigenvalues --   -9.97722  -9.97719  -9.97705  -9.97701  -9.97692
 Alpha  occ. eigenvalues --   -9.97689  -9.97675  -9.97675  -9.97674  -9.97647
 Alpha  occ. eigenvalues --   -9.97643  -9.97639  -9.97623  -9.97601  -9.97581
 Alpha  occ. eigenvalues --   -9.97467  -9.97445  -9.97441  -9.97438  -9.97418
 Alpha  occ. eigenvalues --   -9.97410  -9.97375  -9.97364  -9.97340  -9.97338
 Alpha  occ. eigenvalues --   -9.97334  -9.97327  -9.97301  -9.97211  -9.97203
 Alpha  occ. eigenvalues --   -7.77066  -7.77049  -7.77029  -7.76986  -7.76948
 Alpha  occ. eigenvalues --   -5.79141  -5.79124  -5.79104  -5.79053  -5.79023
 Alpha  occ. eigenvalues --   -5.78701  -5.78684  -5.78664  -5.78608  -5.78583
 Alpha  occ. eigenvalues --   -5.78307  -5.78290  -5.78270  -5.78249  -5.78191
 Alpha  occ. eigenvalues --   -0.88468  -0.88316  -0.88128  -0.87950  -0.87557
 Alpha  occ. eigenvalues --   -0.85839  -0.85431  -0.84941  -0.84476  -0.84188
 Alpha  occ. eigenvalues --   -0.79817  -0.79080  -0.78115  -0.77056  -0.76017
 Alpha  occ. eigenvalues --   -0.75323  -0.75202  -0.75090  -0.74985  -0.74593
 Alpha  occ. eigenvalues --   -0.73777  -0.73655  -0.73563  -0.73415  -0.73219
 Alpha  occ. eigenvalues --   -0.72942  -0.72164  -0.70800  -0.69449  -0.68375
 Alpha  occ. eigenvalues --   -0.64911  -0.63854  -0.63242  -0.62788  -0.62406
 Alpha  occ. eigenvalues --   -0.62090  -0.61749  -0.61342  -0.61284  -0.60497
 Alpha  occ. eigenvalues --   -0.57046  -0.56860  -0.56640  -0.56446  -0.56332
 Alpha  occ. eigenvalues --   -0.56167  -0.56068  -0.55909  -0.55602  -0.55514
 Alpha  occ. eigenvalues --   -0.54091  -0.53944  -0.53531  -0.53042  -0.52387
 Alpha  occ. eigenvalues --   -0.50881  -0.49709  -0.48778  -0.48409  -0.48262
 Alpha  occ. eigenvalues --   -0.48019  -0.47529  -0.47211  -0.46983  -0.46775
 Alpha  occ. eigenvalues --   -0.46521  -0.46389  -0.46225  -0.45757  -0.44974
 Alpha  occ. eigenvalues --   -0.44266  -0.44171  -0.44114  -0.44041  -0.43781
 Alpha  occ. eigenvalues --   -0.43132  -0.43009  -0.42966  -0.42741  -0.42671
 Alpha  occ. eigenvalues --   -0.42192  -0.41989  -0.41742  -0.41656  -0.41558
 Alpha  occ. eigenvalues --   -0.41394  -0.41226  -0.40949  -0.40882  -0.40607
 Alpha  occ. eigenvalues --   -0.40194  -0.39789  -0.39362  -0.39208  -0.39162
 Alpha  occ. eigenvalues --   -0.38884  -0.38667  -0.38430  -0.38209  -0.38119
 Alpha  occ. eigenvalues --   -0.37811  -0.37541  -0.37442  -0.37160  -0.36893
 Alpha  occ. eigenvalues --   -0.36610  -0.36229  -0.35876  -0.35457  -0.35195
 Alpha  occ. eigenvalues --   -0.35009  -0.34115  -0.33304  -0.32228  -0.31009
 Alpha  occ. eigenvalues --   -0.29899  -0.29786  -0.29731  -0.29691  -0.29645
 Alpha  occ. eigenvalues --   -0.29298  -0.28925  -0.28838  -0.28786  -0.28682
 Alpha  occ. eigenvalues --   -0.28675  -0.27436  -0.26087  -0.24582  -0.23190
 Alpha  occ. eigenvalues --   -0.22186
 Alpha virt. eigenvalues --   -0.04917  -0.03827  -0.02422  -0.00914   0.00524
 Alpha virt. eigenvalues --    0.00848   0.00967   0.01110   0.01212   0.01501
 Alpha virt. eigenvalues --    0.02013   0.03219   0.04299   0.05128   0.05608

  Beta  occ. eigenvalues --  -88.16781 -88.16764 -88.16743 -88.16703 -88.16664
  Beta  occ. eigenvalues --  -10.00325 -10.00325 -10.00303 -10.00302 -10.00288
  Beta  occ. eigenvalues --  -10.00287 -10.00187 -10.00161 -10.00046  -9.99370
  Beta  occ. eigenvalues --   -9.99076  -9.99072  -9.99072  -9.99069  -9.99029
  Beta  occ. eigenvalues --   -9.99017  -9.98991  -9.98966  -9.98872  -9.97731
  Beta  occ. eigenvalues --   -9.97722  -9.97719  -9.97705  -9.97701  -9.97692
  Beta  occ. eigenvalues --   -9.97689  -9.97675  -9.97675  -9.97674  -9.97647
  Beta  occ. eigenvalues --   -9.97643  -9.97639  -9.97623  -9.97601  -9.97581
  Beta  occ. eigenvalues --   -9.97467  -9.97445  -9.97441  -9.97438  -9.97418
  Beta  occ. eigenvalues --   -9.97410  -9.97375  -9.97364  -9.97340  -9.97338
  Beta  occ. eigenvalues --   -9.97334  -9.97327  -9.97301  -9.97211  -9.97203
  Beta  occ. eigenvalues --   -7.77066  -7.77049  -7.77029  -7.76986  -7.76948
  Beta  occ. eigenvalues --   -5.79141  -5.79124  -5.79104  -5.79053  -5.79023
  Beta  occ. eigenvalues --   -5.78701  -5.78684  -5.78664  -5.78608  -5.78583
  Beta  occ. eigenvalues --   -5.78307  -5.78290  -5.78270  -5.78249  -5.78191
  Beta  occ. eigenvalues --   -0.88468  -0.88316  -0.88128  -0.87950  -0.87557
  Beta  occ. eigenvalues --   -0.85839  -0.85431  -0.84941  -0.84476  -0.84188
  Beta  occ. eigenvalues --   -0.79817  -0.79080  -0.78115  -0.77056  -0.76017
  Beta  occ. eigenvalues --   -0.75323  -0.75202  -0.75090  -0.74985  -0.74593
  Beta  occ. eigenvalues --   -0.73777  -0.73655  -0.73563  -0.73415  -0.73219
  Beta  occ. eigenvalues --   -0.72942  -0.72164  -0.70800  -0.69449  -0.68375
  Beta  occ. eigenvalues --   -0.64911  -0.63854  -0.63242  -0.62788  -0.62406
  Beta  occ. eigenvalues --   -0.62090  -0.61749  -0.61342  -0.61284  -0.60497
  Beta  occ. eigenvalues --   -0.57046  -0.56860  -0.56640  -0.56446  -0.56332
  Beta  occ. eigenvalues --   -0.56167  -0.56068  -0.55909  -0.55602  -0.55514
  Beta  occ. eigenvalues --   -0.54091  -0.53944  -0.53531  -0.53042  -0.52387
  Beta  occ. eigenvalues --   -0.50881  -0.49709  -0.48778  -0.48409  -0.48262
  Beta  occ. eigenvalues --   -0.48019  -0.47529  -0.47211  -0.46983  -0.46775
  Beta  occ. eigenvalues --   -0.46521  -0.46389  -0.46225  -0.45757  -0.44974
  Beta  occ. eigenvalues --   -0.44266  -0.44171  -0.44114  -0.44041  -0.43781
  Beta  occ. eigenvalues --   -0.43132  -0.43009  -0.42966  -0.42741  -0.42671
  Beta  occ. eigenvalues --   -0.42192  -0.41989  -0.41742  -0.41656  -0.41558
  Beta  occ. eigenvalues --   -0.41394  -0.41226  -0.40949  -0.40882  -0.40607
  Beta  occ. eigenvalues --   -0.40194  -0.39789  -0.39362  -0.39208  -0.39162
  Beta  occ. eigenvalues --   -0.38884  -0.38667  -0.38430  -0.38209  -0.38119
  Beta  occ. eigenvalues --   -0.37811  -0.37541  -0.37442  -0.37160  -0.36893
  Beta  occ. eigenvalues --   -0.36610  -0.36229  -0.35876  -0.35457  -0.35195
  Beta  occ. eigenvalues --   -0.35009  -0.34115  -0.33304  -0.32228  -0.31009
  Beta  occ. eigenvalues --   -0.29899  -0.29786  -0.29731  -0.29691  -0.29645
  Beta  occ. eigenvalues --   -0.29298  -0.28925  -0.28838  -0.28786  -0.28682
  Beta  occ. eigenvalues --   -0.28675  -0.27436  -0.26087  -0.24582  -0.23190
  Beta  occ. eigenvalues --   -0.22186
  Beta virt. eigenvalues --   -0.04917  -0.03827  -0.02422  -0.00914   0.00524
  Beta virt. eigenvalues --    0.00848   0.00967   0.01110   0.01212   0.01501
  Beta virt. eigenvalues --    0.02013   0.03219   0.04299   0.05128   0.05608

 Mulliken charges and spin densities:
               1          2
     1  C    0.025620  -0.000000
     2  C    0.035079  -0.000000
     3  C   -0.006605   0.000000
     4  C    0.074446  -0.000000
     5  C   -0.004940  -0.000000
     6  C    0.035780   0.000000
     7  C   -0.136592  -0.000000
     8  C    0.041437   0.000000
     9  C    0.034788  -0.000000
    10  C   -0.140332   0.000000
    11  S    0.133823  -0.000000
    12  C    0.096702  -0.000000
    13  C    0.002709  -0.000000
    14  C    0.003454  -0.000000
    15  C    0.096058  -0.000000
    16  C    0.002427   0.000000
    17  C    0.003906   0.000000
    18  C   -0.139080   0.000000
    19  C    0.037273   0.000000
    20  C    0.037255   0.000000
    21  C   -0.139327  -0.000000
    22  S    0.132123  -0.000000
    23  C    0.096392  -0.000000
    24  C    0.002680   0.000000
    25  C    0.003453   0.000000
    26  C    0.096507  -0.000000
    27  C    0.002461  -0.000000
    28  C    0.003667   0.000000
    29  C   -0.139243   0.000000
    30  C    0.037141   0.000000
    31  C    0.037115  -0.000000
    32  C   -0.139395   0.000000
    33  S    0.133073  -0.000000
    34  C    0.096567  -0.000000
    35  C    0.002276   0.000000
    36  C    0.002069  -0.000000
    37  C    0.096956  -0.000000
    38  C    0.003717   0.000000
    39  C    0.003955   0.000000
    40  C   -0.139655   0.000000
    41  C    0.036534  -0.000000
    42  C    0.037287   0.000000
    43  C   -0.138787  -0.000000
    44  S    0.133578  -0.000000
    45  C    0.094608   0.000000
    46  C    0.001260   0.000000
    47  C    0.004404  -0.000000
    48  C    0.104824   0.000000
    49  C    0.004780   0.000000
    50  C    0.003088   0.000000
    51  C   -0.149256  -0.000000
    52  C    0.010427   0.000000
    53  C    0.074721  -0.000000
    54  C   -0.123049   0.000000
    55  S    0.139582  -0.000000
    56  H   -0.019510   0.000000
    57  H   -0.017733  -0.000000
    58  H   -0.020975   0.000000
    59  H   -0.028565   0.000000
    60  H   -0.017921   0.000000
    61  H   -0.020061   0.000000
    62  H   -0.020042   0.000000
    63  H   -0.028061   0.000000
    64  H   -0.020231   0.000000
    65  H   -0.028026   0.000000
    66  H   -0.020108   0.000000
    67  H   -0.019563  -0.000000
    68  H   -0.019544  -0.000000
    69  H   -0.027792   0.000000
    70  H   -0.019738   0.000000
    71  H   -0.027988   0.000000
    72  H   -0.020015  -0.000000
    73  H   -0.019700   0.000000
    74  H   -0.020155   0.000000
    75  H   -0.019570   0.000000
    76  H   -0.019350  -0.000000
    77  H   -0.028281   0.000000
    78  H   -0.028277   0.000000
    79  H   -0.020339  -0.000000
    80  H   -0.020336   0.000000
    81  H   -0.019734   0.000000
    82  H   -0.019803  -0.000000
    83  H   -0.027778  -0.000000
    84  H   -0.028542   0.000000
    85  H   -0.017316   0.000000
    86  H   -0.014412   0.000000
    87  H    0.019725  -0.000000
 Sum of Mulliken charges =  -0.00000  -0.00000

 Dipole moment (field-independent basis, Debye):
    X=             -0.3248    Y=             -1.0004    Z=             -0.1676  Tot=              1.0651
 Quadrupole moment (field-independent basis, Debye-Ang):
   XX=           -271.9509   YY=           -312.4647   ZZ=           -369.0276
   XY=              3.8908   XZ=              1.1041   YZ=             -8.1812

 Normal termination of Gaussian 16 at Fri Jul 24 17:47:24 2020.
