 Gaussian 16, Revision A.03,
 Gaussian 16:  EM64L-G16RevA.03 25-Dec-2016

 ---------------------------------------------------------------
 #P uLC-wPBE/cc-pVDZ iop(3/107=0182900000, 3/108=0182900000) opt
 ---------------------------------------------------------------

 -------------
 H14 C24 S3 N6
 -------------
 Symbolic Z-matrix:
 Charge =  0 Multiplicity = 1

 SCF Done:  E(ULC-wPBE) =  -2444.51528417     A.U. after   16 cycles
 SCF Done:  E(ULC-wPBE) =  -2444.57891837     A.U. after   14 cycles
 SCF Done:  E(ULC-wPBE) =  -2444.61487727     A.U. after   15 cycles
 SCF Done:  E(ULC-wPBE) =  -2444.61667928     A.U. after   13 cycles
 SCF Done:  E(ULC-wPBE) =  -2444.61687981     A.U. after   13 cycles
 SCF Done:  E(ULC-wPBE) =  -2444.61699518     A.U. after   12 cycles
 SCF Done:  E(ULC-wPBE) =  -2444.61701374     A.U. after   11 cycles
 SCF Done:  E(ULC-wPBE) =  -2444.61702887     A.U. after   11 cycles
 SCF Done:  E(ULC-wPBE) =  -2444.61705269     A.U. after   12 cycles
 SCF Done:  E(ULC-wPBE) =  -2444.61711339     A.U. after   13 cycles
 SCF Done:  E(ULC-wPBE) =  -2444.61785621     A.U. after   14 cycles
 SCF Done:  E(ULC-wPBE) =  -2444.61801630     A.U. after   13 cycles
 SCF Done:  E(ULC-wPBE) =  -2444.61805368     A.U. after   13 cycles
 SCF Done:  E(ULC-wPBE) =  -2444.61806724     A.U. after   12 cycles
 SCF Done:  E(ULC-wPBE) =  -2444.61807257     A.U. after   11 cycles
 SCF Done:  E(ULC-wPBE) =  -2444.61807253     A.U. after   10 cycles
 SCF Done:  E(ULC-wPBE) =  -2444.61807252     A.U. after    7 cycles
 SCF Done:  E(ULC-wPBE) =  -2444.61806306     A.U. after   12 cycles
 SCF Done:  E(ULC-wPBE) =  -2444.61807296     A.U. after   12 cycles
 SCF Done:  E(ULC-wPBE) =  -2444.61807296     A.U. after    8 cycles
 Optimization completed.
    -- Stationary point found.

                         Standard orientation:
 ---------------------------------------------------------------------
 Center     Atomic      Atomic             Coordinates (Angstroms)
 Number     Number       Type             X           Y           Z
 ---------------------------------------------------------------------
      1          6           0       10.619963    2.331393   -0.429225
      2          6           0        9.339882    2.802060   -0.735843
      3          7           0        8.236994    2.063743   -0.554881
      4          6           0        8.430973    0.824271   -0.055110
      5          7           0        9.613654    0.264190    0.276360
      6          6           0       10.694069    1.031970    0.082943
      7          6           0        7.230894    0.003772    0.146468
      8          6           0        7.148790   -1.284739    0.641146
      9          6           0        5.815466   -1.766523    0.697426
     10          6           0        4.884544   -0.841844    0.245151
     11         16           0        5.662611    0.634689   -0.262294
     12          6           0        3.427780   -0.998422    0.165169
     13          6           0        2.820172   -2.255522   -0.027020
     14          7           0        1.498529   -2.434781   -0.082594
     15          6           0        0.743130   -1.322268    0.039147
     16          7           0        1.201727   -0.064058    0.210588
     17          6           0        2.527634    0.078627    0.277227
     18          6           0       -0.710711   -1.493844   -0.023818
     19          6           0       -1.427378   -2.664674   -0.193446
     20          6           0       -2.829939   -2.452573   -0.204495
     21          6           0       -3.179336   -1.119048   -0.042885
     22         16           0       -1.761937   -0.114703    0.116068
     23          6           0       -4.527478   -0.541002   -0.003402
     24          6           0       -4.848134    0.623869    0.721104
     25          7           0       -6.073514    1.151431    0.766061
     26          6           0       -7.029980    0.493000    0.076626
     27          7           0       -6.850984   -0.629068   -0.654566
     28          6           0       -5.610732   -1.121001   -0.691706
     29          6           0       -8.385933    1.046270    0.122559
     30          6           0       -8.825565    2.172098    0.795421
     31          6           0      -10.216512    2.410755    0.614885
     32          6           0      -10.809902    1.462075   -0.192279
     33         16           0       -9.685711    0.271104   -0.740115
     34          1           0       11.515314    2.945947   -0.581429
     35          1           0        9.185690    3.813824   -1.144100
     36          1           0       11.663176    0.581416    0.351899
     37          1           0        8.040034   -1.838703    0.953488
     38          1           0        5.537963   -2.753398    1.085588
     39          1           0        3.439186   -3.158221   -0.154976
     40          1           0        2.900363    1.103913    0.437794
     41          1           0       -0.929302   -3.634244   -0.296664
     42          1           0       -3.569192   -3.256372   -0.299248
     43          1           0       -4.070773    1.148996    1.301265
     44          1           0       -5.461030   -2.019197   -1.312424
     45          1           0       -8.144405    2.787183    1.392728
     46          1           0      -10.762070    3.249574    1.061934
     47          1           0      -11.859404    1.399440   -0.497430
 ---------------------------------------------------------------------

 The electronic state is 1-A.
 Alpha  occ. eigenvalues --  -88.21363 -88.21033 -88.20108 -14.11893 -14.11829
 Alpha  occ. eigenvalues --  -14.11769 -14.11735 -14.11183 -14.11107 -10.08967
 Alpha  occ. eigenvalues --  -10.08654 -10.08070 -10.06459 -10.06449 -10.06279
 Alpha  occ. eigenvalues --  -10.06247 -10.05773 -10.05724 -10.05255 -10.04923
 Alpha  occ. eigenvalues --  -10.04237 -10.04213 -10.03931 -10.03703 -10.03052
 Alpha  occ. eigenvalues --  -10.02987 -10.02942 -10.02068 -10.01900 -10.01715
 Alpha  occ. eigenvalues --  -10.01607 -10.00721 -10.00689  -7.81670  -7.81343
 Alpha  occ. eigenvalues --   -7.80423  -5.83695  -5.83367  -5.83232  -5.82905
 Alpha  occ. eigenvalues --   -5.82866  -5.82536  -5.82437  -5.81973  -5.81639
 Alpha  occ. eigenvalues --   -1.02188  -1.02124  -1.01525  -0.93005  -0.92735
 Alpha  occ. eigenvalues --   -0.92674  -0.92446  -0.92063  -0.91108  -0.86434
 Alpha  occ. eigenvalues --   -0.85030  -0.83770  -0.79566  -0.78669  -0.78454
 Alpha  occ. eigenvalues --   -0.77308  -0.77198  -0.75133  -0.71913  -0.71262
 Alpha  occ. eigenvalues --   -0.70701  -0.70333  -0.69518  -0.68267  -0.62308
 Alpha  occ. eigenvalues --   -0.62003  -0.61478  -0.61191  -0.60829  -0.60033
 Alpha  occ. eigenvalues --   -0.58373  -0.57668  -0.56976  -0.56825  -0.56441
 Alpha  occ. eigenvalues --   -0.55945  -0.54984  -0.52892  -0.51254  -0.50744
 Alpha  occ. eigenvalues --   -0.50357  -0.50106  -0.49814  -0.47915  -0.47833
 Alpha  occ. eigenvalues --   -0.47103  -0.46930  -0.46454  -0.46038  -0.45379
 Alpha  occ. eigenvalues --   -0.45195  -0.44992  -0.44704  -0.44278  -0.44059
 Alpha  occ. eigenvalues --   -0.43789  -0.43511  -0.42978  -0.40859  -0.40534
 Alpha  occ. eigenvalues --   -0.39669  -0.39160  -0.38768  -0.38699  -0.38145
 Alpha  occ. eigenvalues --   -0.37298  -0.36646  -0.36498  -0.35943  -0.35412
 Alpha  occ. eigenvalues --   -0.32334  -0.32019  -0.31198  -0.31065  -0.31037
 Alpha  occ. eigenvalues --   -0.30722  -0.29959  -0.28425  -0.26312
 Alpha virt. eigenvalues --   -0.04177  -0.01936  -0.00089   0.00021   0.00367
 Alpha virt. eigenvalues --    0.00553   0.04139   0.06213   0.07955   0.08292
 Alpha virt. eigenvalues --    0.08768   0.09828   0.10172   0.11259   0.11812

  Beta  occ. eigenvalues --  -88.21363 -88.21033 -88.20108 -14.11893 -14.11829
  Beta  occ. eigenvalues --  -14.11769 -14.11735 -14.11183 -14.11107 -10.08967
  Beta  occ. eigenvalues --  -10.08654 -10.08070 -10.06459 -10.06449 -10.06279
  Beta  occ. eigenvalues --  -10.06247 -10.05773 -10.05724 -10.05255 -10.04923
  Beta  occ. eigenvalues --  -10.04237 -10.04213 -10.03931 -10.03703 -10.03052
  Beta  occ. eigenvalues --  -10.02987 -10.02942 -10.02068 -10.01900 -10.01715
  Beta  occ. eigenvalues --  -10.01607 -10.00721 -10.00689  -7.81670  -7.81343
  Beta  occ. eigenvalues --   -7.80423  -5.83695  -5.83367  -5.83232  -5.82905
  Beta  occ. eigenvalues --   -5.82866  -5.82536  -5.82437  -5.81973  -5.81639
  Beta  occ. eigenvalues --   -1.02188  -1.02124  -1.01525  -0.93005  -0.92735
  Beta  occ. eigenvalues --   -0.92674  -0.92446  -0.92063  -0.91108  -0.86434
  Beta  occ. eigenvalues --   -0.85030  -0.83770  -0.79566  -0.78669  -0.78454
  Beta  occ. eigenvalues --   -0.77308  -0.77198  -0.75133  -0.71913  -0.71262
  Beta  occ. eigenvalues --   -0.70701  -0.70333  -0.69518  -0.68267  -0.62308
  Beta  occ. eigenvalues --   -0.62003  -0.61478  -0.61191  -0.60829  -0.60033
  Beta  occ. eigenvalues --   -0.58373  -0.57668  -0.56976  -0.56825  -0.56441
  Beta  occ. eigenvalues --   -0.55945  -0.54984  -0.52892  -0.51254  -0.50744
  Beta  occ. eigenvalues --   -0.50357  -0.50106  -0.49814  -0.47915  -0.47833
  Beta  occ. eigenvalues --   -0.47103  -0.46930  -0.46454  -0.46038  -0.45379
  Beta  occ. eigenvalues --   -0.45195  -0.44992  -0.44704  -0.44278  -0.44059
  Beta  occ. eigenvalues --   -0.43789  -0.43511  -0.42978  -0.40859  -0.40534
  Beta  occ. eigenvalues --   -0.39669  -0.39160  -0.38768  -0.38699  -0.38145
  Beta  occ. eigenvalues --   -0.37298  -0.36646  -0.36498  -0.35943  -0.35412
  Beta  occ. eigenvalues --   -0.32334  -0.32019  -0.31198  -0.31065  -0.31037
  Beta  occ. eigenvalues --   -0.30722  -0.29959  -0.28425  -0.26312
  Beta virt. eigenvalues --   -0.04177  -0.01936  -0.00089   0.00021   0.00367
  Beta virt. eigenvalues --    0.00553   0.04139   0.06213   0.07955   0.08292
  Beta virt. eigenvalues --    0.08768   0.09828   0.10172   0.11259   0.11812

 Mulliken charges and spin densities:
               1          2
     1  C   -0.060459  -0.000000
     2  C    0.121547   0.000000
     3  N   -0.202352  -0.000000
     4  C    0.186551  -0.000000
     5  N   -0.188265   0.000000
     6  C    0.119961   0.000000
     7  C   -0.157505   0.000000
     8  C    0.073310   0.000000
     9  C    0.037009  -0.000000
    10  C   -0.162864   0.000000
    11  S    0.196492   0.000000
    12  C   -0.050239  -0.000000
    13  C    0.131084  -0.000000
    14  N   -0.184891   0.000000
    15  C    0.186591   0.000000
    16  N   -0.197976   0.000000
    17  C    0.131638  -0.000000
    18  C   -0.158477  -0.000000
    19  C    0.072030   0.000000
    20  C    0.037692  -0.000000
    21  C   -0.161730   0.000000
    22  S    0.195965   0.000000
    23  C   -0.051663  -0.000000
    24  C    0.127793   0.000000
    25  N   -0.184266  -0.000000
    26  C    0.195964  -0.000000
    27  N   -0.198530   0.000000
    28  C    0.130431   0.000000
    29  C   -0.166280  -0.000000
    30  C    0.045939   0.000000
    31  C    0.070036  -0.000000
    32  C   -0.126832   0.000000
    33  S    0.187480  -0.000000
    34  H   -0.000072   0.000000
    35  H    0.013882  -0.000000
    36  H    0.011188  -0.000000
    37  H   -0.012298  -0.000000
    38  H   -0.012692   0.000000
    39  H    0.004284  -0.000000
    40  H    0.013218  -0.000000
    41  H   -0.013052   0.000000
    42  H   -0.012947   0.000000
    43  H    0.009992   0.000000
    44  H    0.005223  -0.000000
    45  H   -0.011611   0.000000
    46  H   -0.011431  -0.000000
    47  H    0.021131   0.000000
 Sum of Mulliken charges =  -0.00000   0.00000

 Dipole moment (field-independent basis, Debye):
    X=              4.8624    Y=              0.2419    Z=              0.1440  Tot=              4.8705
 Quadrupole moment (field-independent basis, Debye-Ang):
   XX=           -149.1215   YY=           -193.1321   ZZ=           -210.8938
   XY=              9.7074   XZ=             -2.1132   YZ=             -0.0108

 Normal termination of Gaussian 16 at Sat Jul 25 07:33:01 2020.
