 Gaussian 16, Revision A.03,
 Gaussian 16:  EM64L-G16RevA.03 25-Dec-2016

 ---------------------------------------------------------------
 #P uLC-wPBE/cc-pVDZ iop(3/107=0247400000, 3/108=0247400000) opt
 ---------------------------------------------------------------

 -----------
 H44 C84 F14
 -----------
 Symbolic Z-matrix:
 Charge =  0 Multiplicity = 1

 SCF Done:  E(ULC-wPBE) =  -4621.55528404     A.U. after   17 cycles
 SCF Done:  E(ULC-wPBE) =  -4621.66084489     A.U. after   13 cycles
 SCF Done:  E(ULC-wPBE) =  -4621.77494677     A.U. after   15 cycles
 SCF Done:  E(ULC-wPBE) =  -4621.81272960     A.U. after   14 cycles
 SCF Done:  E(ULC-wPBE) =  -4621.82032968     A.U. after   14 cycles
 SCF Done:  E(ULC-wPBE) =  -4621.82198270     A.U. after   14 cycles
 SCF Done:  E(ULC-wPBE) =  -4621.82267113     A.U. after   14 cycles
 SCF Done:  E(ULC-wPBE) =  -4621.82306574     A.U. after   14 cycles
 SCF Done:  E(ULC-wPBE) =  -4621.82317462     A.U. after   13 cycles
 SCF Done:  E(ULC-wPBE) =  -4621.82322153     A.U. after   13 cycles
 SCF Done:  E(ULC-wPBE) =  -4621.82322901     A.U. after   12 cycles
 SCF Done:  E(ULC-wPBE) =  -4621.82323074     A.U. after   10 cycles
 SCF Done:  E(ULC-wPBE) =  -4621.82323211     A.U. after   10 cycles
 SCF Done:  E(ULC-wPBE) =  -4621.82323209     A.U. after    9 cycles
 SCF Done:  E(ULC-wPBE) =  -4621.82323219     A.U. after    6 cycles
 SCF Done:  E(ULC-wPBE) =  -4621.82323218     A.U. after    6 cycles
 SCF Done:  E(ULC-wPBE) =  -4621.82323229     A.U. after    5 cycles
 Optimization completed.
    -- Stationary point found.

                         Standard orientation:
 ---------------------------------------------------------------------
 Center     Atomic      Atomic             Coordinates (Angstroms)
 Number     Number       Type             X           Y           Z
 ---------------------------------------------------------------------
      1          6           0      -29.611367   -0.211407    0.162138
      2          6           0      -28.899709   -0.773967    1.221786
      3          6           0      -27.509401   -0.741395    1.194072
      4          9           0      -26.841207   -1.291256    2.236012
      5          6           0      -26.782789   -0.164894    0.143634
      6          6           0      -27.528690    0.397391   -0.906474
      7          6           0      -28.923268    0.374112   -0.903755
      8          6           0      -25.295476   -0.160236    0.142988
      9          6           0      -24.543610   -1.303149    0.462218
     10          6           0      -23.150791   -1.294397    0.441387
     11          6           0      -22.443143   -0.129323    0.104492
     12          6           0      -23.175519    1.022833   -0.211308
     13          6           0      -24.564389    0.988009   -0.187463
     14          9           0      -25.226079    2.125204   -0.506067
     15          6           0      -20.955225   -0.108979    0.082616
     16          6           0      -20.235204   -1.199987   -0.422508
     17          6           0      -18.846339   -1.167244   -0.433570
     18          9           0      -18.197300   -2.240440   -0.943747
     19          6           0      -18.102493   -0.079936    0.043188
     20          6           0      -18.842062    1.005358    0.542710
     21          6           0      -20.234654    0.995002    0.566325
     22          6           0      -16.616453   -0.085336    0.026604
     23          6           0      -15.867122   -1.203017    0.431002
     24          6           0      -14.474324   -1.193660    0.424247
     25          6           0      -13.763574   -0.057634    0.004548
     26          6           0      -14.493339    1.066288   -0.405436
     27          6           0      -15.882181    1.033592   -0.387949
     28          9           0      -16.541152    2.139839   -0.805924
     29          6           0      -12.275622   -0.038173   -0.005731
     30          6           0      -11.551641   -1.165865   -0.415706
     31          6           0      -10.162730   -1.133395   -0.417340
     32          9           0       -9.509451   -2.243525   -0.834310
     33          6           0       -9.422816   -0.011024   -0.022714
     34          6           0      -10.166262    1.110545    0.381745
     35          6           0      -11.559055    1.101358    0.394094
     36          6           0       -7.936552   -0.017041   -0.025605
     37          6           0       -7.191348   -1.096095    0.478806
     38          6           0       -5.798515   -1.085303    0.487437
     39          6           0       -5.083755    0.011917   -0.019579
     40          6           0       -5.809347    1.095410   -0.532604
     41          6           0       -7.198295    1.063142   -0.526655
     42          9           0       -7.853043    2.136492   -1.028519
     43          6           0       -3.595603    0.029013   -0.014614
     44          6           0       -2.883070    0.544645   -1.105512
     45          6           0       -1.493905    0.549820   -1.084721
     46          9           0       -0.852054    1.053718   -2.164898
     47          6           0       -0.742784    0.057756   -0.009287
     48          6           0       -1.475035   -0.449340    1.077364
     49          6           0       -2.867793   -0.469036    1.078128
     50          6           0        0.743353    0.066318   -0.027723
     51          6           0        1.480474   -0.335327   -1.154474
     52          6           0        2.873348   -0.337110   -1.156918
     53          6           0        3.596343    0.070914   -0.024383
     54          6           0        2.878728    0.478282    1.108305
     55          6           0        1.489614    0.469406    1.087422
     56          9           0        0.842530    0.884281    2.201939
     57          6           0        5.084441    0.071703   -0.017333
     58          6           0        5.801751    0.484571   -1.148208
     59          6           0        7.190895    0.477255   -1.127160
     60          9           0        7.837636    0.897549   -2.239698
     61          6           0        7.937438    0.070423   -0.013540
     62          6           0        7.200590   -0.336868    1.111349
     63          6           0        5.807726   -0.340288    1.113582
     64          6           0        9.423591    0.063929   -0.031578
     65          6           0       10.156937   -0.437568   -1.120147
     66          6           0       11.549693   -0.455403   -1.120403
     67          6           0       12.276507    0.038739   -0.025228
     68          6           0       11.562873    0.548865    1.067543
     69          6           0       10.173710    0.552312    1.046171
     70          9           0        9.530852    1.050587    2.128544
     71          6           0       13.764678    0.026619   -0.017516
     72          6           0       14.470528   -1.069564   -0.531128
     73          6           0       15.859794   -1.066792   -0.515852
     74          9           0       16.494829   -2.151705   -1.018545
     75          6           0       16.617503   -0.005041   -0.004695
     76          6           0       15.891952    1.087268    0.499967
     77          6           0       14.499194    1.106063    0.499273
     78          6           0       18.103243   -0.042818    0.008309
     79          6           0       18.819803   -1.181687    0.413048
     80          6           0       20.212334   -1.202376    0.435006
     81          6           0       20.955877   -0.076767    0.045025
     82          6           0       20.258890    1.067843   -0.364810
     83          6           0       18.869632    1.065159   -0.376182
     84          9           0       18.243088    2.190813   -0.792731
     85          6           0       22.443895   -0.089523    0.065852
     86          6           0       23.151834   -1.225752   -0.348127
     87          6           0       24.541122   -1.222269   -0.323890
     88          9           0       25.178676   -2.341893   -0.739347
     89          6           0       25.296268   -0.121954    0.101802
     90          6           0       24.568647    1.005189    0.518454
     91          6           0       23.175951    1.027528    0.499392
     92          6           0       26.783343   -0.148667    0.100362
     93          6           0       27.517381   -0.635531   -0.994819
     94          6           0       28.912141   -0.641929   -0.992409
     95          6           0       29.612287   -0.163428    0.118117
     96          6           0       28.912491    0.322192    1.222768
     97          6           0       27.521810    0.321344    1.194667
     98          9           0       26.865213    0.794937    2.280508
     99          1           0      -30.707564   -0.232152    0.171715
    100          1           0      -29.399533   -1.238639    2.078686
    101          1           0      -26.993037    0.858569   -1.743082
    102          1           0      -29.475569    0.816707   -1.740623
    103          1           0      -25.073139   -2.221192    0.737809
    104          1           0      -22.602495   -2.203433    0.714446
    105          1           0      -22.682032    1.957169   -0.500600
    106          1           0      -20.739486   -2.078336   -0.840070
    107          1           0      -18.303032    1.874994    0.932862
    108          1           0      -20.772190    1.850497    0.991309
    109          1           0      -16.398340   -2.098519    0.769988
    110          1           0      -13.928557   -2.077195    0.774909
    111          1           0      -13.997573    1.972174   -0.771149
    112          1           0      -12.052509   -2.074767   -0.766680
    113          1           0       -9.630366    2.008966    0.705284
    114          1           0      -12.099886    1.988140    0.744193
    115          1           0       -7.725961   -1.967588    0.870829
    116          1           0       -5.255633   -1.955439    0.873939
    117          1           0       -5.310561    1.988341   -0.925350
    118          1           0       -3.392309    0.930783   -1.995420
    119          1           0       -0.930173   -0.834577    1.945531
    120          1           0       -3.400384   -0.857279    1.953829
    121          1           0        0.939582   -0.665169   -2.047587
    122          1           0        3.409374   -0.685314   -2.047359
    123          1           0        3.384469    0.835281    2.012144
    124          1           0        5.295765    0.844705   -2.050673
    125          1           0        7.741743   -0.669835    2.003143
    126          1           0        5.271945   -0.692894    2.002439
    127          1           0        9.613015   -0.819797   -1.990225
    128          1           0       12.082875   -0.839139   -1.997846
    129          1           0       12.071512    0.931937    1.958993
    130          1           0       13.955341   -1.949583   -0.931501
    131          1           0       16.442246    1.945340    0.899808
    132          1           0       13.972604    1.986025    0.886344
    133          1           0       18.262621   -2.069730    0.729229
    134          1           0       20.731833   -2.101745    0.785286
    135          1           0       20.781423    1.967647   -0.707556
    136          1           0       22.638744   -2.121517   -0.714915
    137          1           0       25.117381    1.885075    0.870371
    138          1           0       22.646957    1.921345    0.849800
    139          1           0       26.972257   -1.012816   -1.866609
    140          1           0       29.455109   -1.023543   -1.864668
    141          1           0       30.708675   -0.166622    0.127625
    142          1           0       29.421857    0.701987    2.115128
 ---------------------------------------------------------------------

 Alpha virt. eigenvalues --    0.24066   0.24083   0.24177   0.24501   0.24742
 Alpha virt. eigenvalues --    0.25027   0.25395   0.25684   0.25817   0.25962
 Alpha virt. eigenvalues --    0.29266   0.29619   0.29782   0.29914   0.30152

  Beta  occ. eigenvalues --  -24.42981 -24.42978 -24.42975 -24.42968 -24.42957
  Beta  occ. eigenvalues --  -24.42951 -24.42949 -24.42924 -24.42909 -24.42897
  Beta  occ. eigenvalues --  -24.42747 -24.42747 -24.42592 -24.42590 -10.12958
  Beta  occ. eigenvalues --  -10.12953 -10.12946 -10.12945 -10.12936 -10.12932
  Beta  occ. eigenvalues --  -10.12919 -10.12905 -10.12875 -10.12868 -10.12736
  Beta  occ. eigenvalues --  -10.12735 -10.12515 -10.12514 -10.06892 -10.06882
  Beta  occ. eigenvalues --  -10.06872 -10.06871 -10.06862 -10.06854 -10.06852
  Beta  occ. eigenvalues --  -10.06838 -10.06797 -10.06790 -10.06785 -10.06785
  Beta  occ. eigenvalues --  -10.06782 -10.06775 -10.06775 -10.06773 -10.06750
  Beta  occ. eigenvalues --  -10.06742 -10.06708 -10.06708 -10.06703 -10.06700
  Beta  occ. eigenvalues --  -10.06549 -10.06546 -10.06429 -10.06428 -10.05743
  Beta  occ. eigenvalues --  -10.05738 -10.05730 -10.05728 -10.05725 -10.05717
  Beta  occ. eigenvalues --  -10.05697 -10.05696 -10.05657 -10.05652 -10.05535
  Beta  occ. eigenvalues --  -10.05532 -10.05481 -10.05477 -10.05464 -10.05458
  Beta  occ. eigenvalues --  -10.05451 -10.05448 -10.05448 -10.05447 -10.05443
  Beta  occ. eigenvalues --  -10.05424 -10.05380 -10.05375 -10.05312 -10.05311
  Beta  occ. eigenvalues --  -10.05290 -10.05288 -10.05139 -10.05135 -10.05132
  Beta  occ. eigenvalues --  -10.05132 -10.05120 -10.05117 -10.05104 -10.05102
  Beta  occ. eigenvalues --  -10.05095 -10.05093 -10.05036 -10.05033 -10.04970
  Beta  occ. eigenvalues --  -10.04966 -10.04712 -10.04712  -1.26854  -1.26847
  Beta  occ. eigenvalues --   -1.26846  -1.26819  -1.26813  -1.26809  -1.26808
  Beta  occ. eigenvalues --   -1.26796  -1.26758  -1.26751  -1.26614  -1.26613
  Beta  occ. eigenvalues --   -1.26431  -1.26429  -0.96169  -0.96066  -0.95925
  Beta  occ. eigenvalues --   -0.95749  -0.95539  -0.95313  -0.94860  -0.94615
  Beta  occ. eigenvalues --   -0.94276  -0.93894  -0.93494  -0.93105  -0.92779
  Beta  occ. eigenvalues --   -0.92643  -0.89344  -0.88886  -0.88281  -0.87574
  Beta  occ. eigenvalues --   -0.86795  -0.85970  -0.85206  -0.84093  -0.83490
  Beta  occ. eigenvalues --   -0.83440  -0.83424  -0.83332  -0.83191  -0.83178
  Beta  occ. eigenvalues --   -0.83048  -0.82650  -0.82604  -0.82557  -0.82504
  Beta  occ. eigenvalues --   -0.82484  -0.82441  -0.82359  -0.82297  -0.81869
  Beta  occ. eigenvalues --   -0.80935  -0.79970  -0.79092  -0.78475  -0.74791
  Beta  occ. eigenvalues --   -0.74040  -0.73161  -0.72362  -0.71964  -0.71786
  Beta  occ. eigenvalues --   -0.71733  -0.71505  -0.71214  -0.71037  -0.70821
  Beta  occ. eigenvalues --   -0.70324  -0.70075  -0.69968  -0.69459  -0.69054
  Beta  occ. eigenvalues --   -0.68923  -0.68696  -0.68361  -0.68301  -0.68074
  Beta  occ. eigenvalues --   -0.67957  -0.67774  -0.67443  -0.67212  -0.67045
  Beta  occ. eigenvalues --   -0.67003  -0.66972  -0.63707  -0.63605  -0.63499
  Beta  occ. eigenvalues --   -0.63377  -0.63245  -0.63169  -0.62225  -0.62219
  Beta  occ. eigenvalues --   -0.61112  -0.60649  -0.60128  -0.59855  -0.59720
  Beta  occ. eigenvalues --   -0.59553  -0.59420  -0.59288  -0.59082  -0.58877
  Beta  occ. eigenvalues --   -0.58667  -0.58567  -0.58419  -0.58025  -0.57748
  Beta  occ. eigenvalues --   -0.57631  -0.57515  -0.57442  -0.57365  -0.57302
  Beta  occ. eigenvalues --   -0.56708  -0.56433  -0.56297  -0.56086  -0.55910
  Beta  occ. eigenvalues --   -0.55811  -0.55806  -0.55744  -0.55499  -0.55359
  Beta  occ. eigenvalues --   -0.55052  -0.54565  -0.54402  -0.54361  -0.54346
  Beta  occ. eigenvalues --   -0.54314  -0.54260  -0.54073  -0.54071  -0.54013
  Beta  occ. eigenvalues --   -0.53998  -0.53924  -0.53906  -0.53870  -0.53735
  Beta  occ. eigenvalues --   -0.53627  -0.53626  -0.53020  -0.52679  -0.52203
  Beta  occ. eigenvalues --   -0.51940  -0.51817  -0.51806  -0.51779  -0.51741
  Beta  occ. eigenvalues --   -0.51699  -0.51576  -0.51430  -0.51396  -0.51376
  Beta  occ. eigenvalues --   -0.51364  -0.50983  -0.50825  -0.50308  -0.49681
  Beta  occ. eigenvalues --   -0.48965  -0.48573  -0.48498  -0.48441  -0.48246
  Beta  occ. eigenvalues --   -0.48073  -0.47902  -0.47872  -0.47792  -0.47758
  Beta  occ. eigenvalues --   -0.47555  -0.47446  -0.47228  -0.47053  -0.46937
  Beta  occ. eigenvalues --   -0.46881  -0.46779  -0.46452  -0.46366  -0.46229
  Beta  occ. eigenvalues --   -0.46157  -0.46051  -0.45782  -0.45674  -0.45512
  Beta  occ. eigenvalues --   -0.45428  -0.45341  -0.45126  -0.45042  -0.45007
  Beta  occ. eigenvalues --   -0.44836  -0.44773  -0.44589  -0.44532  -0.44398
  Beta  occ. eigenvalues --   -0.44325  -0.44220  -0.43989  -0.43851  -0.43794
  Beta  occ. eigenvalues --   -0.43697  -0.43600  -0.43515  -0.43465  -0.43437
  Beta  occ. eigenvalues --   -0.43168  -0.42973  -0.42215  -0.41837  -0.41406
  Beta  occ. eigenvalues --   -0.41057  -0.40790  -0.40581  -0.40539  -0.39063
  Beta  occ. eigenvalues --   -0.38698  -0.38156  -0.37466  -0.36685  -0.35864
  Beta  occ. eigenvalues --   -0.35035  -0.34406  -0.34015  -0.33881  -0.33819
  Beta  occ. eigenvalues --   -0.33816  -0.33657  -0.33655  -0.33614  -0.33596
  Beta  occ. eigenvalues --   -0.33570  -0.33524  -0.33483  -0.33249  -0.33210
  Beta  occ. eigenvalues --   -0.32854  -0.32286  -0.31493  -0.30669  -0.29933
  Beta  occ. eigenvalues --   -0.29362  -0.29022
  Beta virt. eigenvalues --   -0.01257  -0.00770  -0.00054   0.00839   0.01850
  Beta virt. eigenvalues --    0.02931   0.04187   0.04665   0.04834   0.04866
  Beta virt. eigenvalues --    0.04869   0.04993   0.05014   0.05075   0.05094

 Mulliken charges and spin densities:
               1          2
     1  C    0.028775  -0.000000
     2  C    0.013559  -0.000000
     3  C    0.091219   0.000000
     4  F   -0.128007   0.000000
     5  C   -0.037856   0.000000
     6  C    0.029548  -0.000000
     7  C    0.024283   0.000000
     8  C   -0.030911  -0.000000
     9  C    0.042123  -0.000000
    10  C    0.011754   0.000000
    11  C    0.022076   0.000000
    12  C    0.006657  -0.000000
    13  C    0.100691   0.000000
    14  F   -0.125638  -0.000000
    15  C    0.025177  -0.000000
    16  C    0.007604  -0.000000
    17  C    0.096731   0.000000
    18  F   -0.126187   0.000000
    19  C   -0.027378  -0.000000
    20  C    0.038047   0.000000
    21  C    0.013040  -0.000000
    22  C   -0.027255  -0.000000
    23  C    0.038296   0.000000
    24  C    0.012308   0.000000
    25  C    0.024589   0.000000
    26  C    0.007355  -0.000000
    27  C    0.097050  -0.000000
    28  F   -0.125671   0.000000
    29  C    0.024494   0.000000
    30  C    0.007425   0.000000
    31  C    0.097157   0.000000
    32  F   -0.125763  -0.000000
    33  C   -0.027911   0.000000
    34  C    0.038399   0.000000
    35  C    0.012424  -0.000000
    36  C   -0.030708  -0.000000
    37  C    0.039654   0.000000
    38  C    0.012250   0.000000
    39  C    0.022984  -0.000000
    40  C    0.008492   0.000000
    41  C    0.099477   0.000000
    42  F   -0.125488  -0.000000
    43  C    0.022992  -0.000000
    44  C    0.008531  -0.000000
    45  C    0.099432   0.000000
    46  F   -0.125503  -0.000000
    47  C   -0.030691  -0.000000
    48  C    0.039611  -0.000000
    49  C    0.012261  -0.000000
    50  C   -0.027859   0.000000
    51  C    0.038401   0.000000
    52  C    0.012424   0.000000
    53  C    0.024481   0.000000
    54  C    0.007412  -0.000000
    55  C    0.097154   0.000000
    56  F   -0.125720  -0.000000
    57  C    0.024478   0.000000
    58  C    0.007397   0.000000
    59  C    0.097324  -0.000000
    60  F   -0.125384   0.000000
    61  C   -0.027813   0.000000
    62  C    0.038344   0.000000
    63  C    0.012372   0.000000
    64  C   -0.030558   0.000000
    65  C    0.039651   0.000000
    66  C    0.012793  -0.000000
    67  C    0.023105   0.000000
    68  C    0.007696   0.000000
    69  C    0.099241  -0.000000
    70  F   -0.125917   0.000000
    71  C    0.023051   0.000000
    72  C    0.007543  -0.000000
    73  C    0.099266  -0.000000
    74  F   -0.125876   0.000000
    75  C   -0.030564   0.000000
    76  C    0.039824  -0.000000
    77  C    0.012689   0.000000
    78  C   -0.028014   0.000000
    79  C    0.038213  -0.000000
    80  C    0.013032  -0.000000
    81  C    0.025026   0.000000
    82  C    0.007573  -0.000000
    83  C    0.097030   0.000000
    84  F   -0.125859   0.000000
    85  C    0.022038  -0.000000
    86  C    0.006678   0.000000
    87  C    0.100646   0.000000
    88  F   -0.125706   0.000000
    89  C   -0.030876  -0.000000
    90  C    0.042072   0.000000
    91  C    0.011800   0.000000
    92  C   -0.037788   0.000000
    93  C    0.029503  -0.000000
    94  C    0.024280  -0.000000
    95  C    0.028773   0.000000
    96  C    0.013585  -0.000000
    97  C    0.091196   0.000000
    98  F   -0.127985   0.000000
    99  H   -0.004026   0.000000
   100  H    0.003076   0.000000
   101  H   -0.009526  -0.000000
   102  H   -0.008491   0.000000
   103  H   -0.008838   0.000000
   104  H   -0.016351   0.000000
   105  H   -0.003135   0.000000
   106  H   -0.003278  -0.000000
   107  H   -0.008846  -0.000000
   108  H   -0.014918  -0.000000
   109  H   -0.008820   0.000000
   110  H   -0.016295  -0.000000
   111  H   -0.002157   0.000000
   112  H   -0.002171  -0.000000
   113  H   -0.008291  -0.000000
   114  H   -0.015901  -0.000000
   115  H   -0.008747   0.000000
   116  H   -0.015554   0.000000
   117  H   -0.002504  -0.000000
   118  H   -0.002480   0.000000
   119  H   -0.008754  -0.000000
   120  H   -0.015523   0.000000
   121  H   -0.008244  -0.000000
   122  H   -0.015937   0.000000
   123  H   -0.002186  -0.000000
   124  H   -0.002007  -0.000000
   125  H   -0.008589  -0.000000
   126  H   -0.016182  -0.000000
   127  H   -0.008414  -0.000000
   128  H   -0.014398   0.000000
   129  H   -0.003518  -0.000000
   130  H   -0.003721  -0.000000
   131  H   -0.008314  -0.000000
   132  H   -0.014457   0.000000
   133  H   -0.008674  -0.000000
   134  H   -0.014930  -0.000000
   135  H   -0.003216  -0.000000
   136  H   -0.003261  -0.000000
   137  H   -0.008783   0.000000
   138  H   -0.016276   0.000000
   139  H   -0.009568   0.000000
   140  H   -0.008524  -0.000000
   141  H   -0.004031   0.000000
   142  H    0.003091  -0.000000
 Sum of Mulliken charges =  -0.00000  -0.00000

 Dipole moment (field-independent basis, Debye):
    X=              0.0148    Y=             -1.5687    Z=              1.1689  Tot=              1.9564
 Quadrupole moment (field-independent basis, Debye-Ang):
   XX=           -416.3429   YY=           -537.7823   ZZ=           -543.9264
   XY=             20.1757   XZ=             -5.8988   YZ=              0.3175

 Normal termination of Gaussian 16 at Sat Jul 25 01:20:20 2020.
