 Gaussian 16, Revision A.03,
 Gaussian 16:  EM64L-G16RevA.03 25-Dec-2016

 ---------------------------------------------------------------
 #P uLC-wPBE/cc-pVDZ iop(3/107=0321900000, 3/108=0321900000) opt
 ---------------------------------------------------------------

 -------------
 H13 C13 N1 O2
 -------------
 Symbolic Z-matrix:
 Charge =  0 Multiplicity = 1

 SCF Done:  E(ULC-wPBE) =  -707.838747499     A.U. after   16 cycles
 SCF Done:  E(ULC-wPBE) =  -707.874400780     A.U. after   14 cycles
 SCF Done:  E(ULC-wPBE) =  -707.884854145     A.U. after   14 cycles
 SCF Done:  E(ULC-wPBE) =  -707.885678566     A.U. after   13 cycles
 SCF Done:  E(ULC-wPBE) =  -707.886148956     A.U. after   14 cycles
 SCF Done:  E(ULC-wPBE) =  -707.886315783     A.U. after   15 cycles
 SCF Done:  E(ULC-wPBE) =  -707.886981980     A.U. after   13 cycles
 SCF Done:  E(ULC-wPBE) =  -707.887407295     A.U. after   14 cycles
 SCF Done:  E(ULC-wPBE) =  -707.887482740     A.U. after   12 cycles
 SCF Done:  E(ULC-wPBE) =  -707.887508771     A.U. after   12 cycles
 SCF Done:  E(ULC-wPBE) =  -707.887514515     A.U. after   10 cycles
 SCF Done:  E(ULC-wPBE) =  -707.887515667     A.U. after    8 cycles
 SCF Done:  E(ULC-wPBE) =  -707.887516402     A.U. after    8 cycles
 SCF Done:  E(ULC-wPBE) =  -707.887516690     A.U. after    8 cycles
 SCF Done:  E(ULC-wPBE) =  -707.887516730     A.U. after    7 cycles
 Optimization completed.
    -- Stationary point found.

                         Standard orientation:
 ---------------------------------------------------------------------
 Center     Atomic      Atomic             Coordinates (Angstroms)
 Number     Number       Type             X           Y           Z
 ---------------------------------------------------------------------
      1          6           0        3.445310   -0.861371    0.548303
      2          6           0        2.936203    0.235920   -0.146633
      3          6           0        1.565630    0.298994   -0.379186
      4          8           0        0.945363    1.271760   -1.089404
      5          6           0        1.733881    2.340168   -1.565622
      6          6           0        0.745540   -0.735978    0.126650
      7          7           0        1.249775   -1.790843    0.761874
      8          6           0        2.570802   -1.851037    0.967478
      9          6           0       -0.730018   -0.727164   -0.092778
     10          6           0       -1.332287   -1.810380   -0.725683
     11          6           0       -2.708880   -1.851223   -0.944418
     12          6           0       -3.493854   -0.791817   -0.507851
     13          6           0       -2.918971    0.292936    0.155711
     14          6           0       -1.540117    0.325262    0.373778
     15          8           0       -0.900937    1.313573    1.054623
     16          6           0       -1.670507    2.397660    1.523825
     17          1           0        4.517674   -0.943351    0.747554
     18          1           0        3.609812    1.016584   -0.507317
     19          1           0        1.046070    3.017126   -2.091117
     20          1           0        2.220010    2.889378   -0.738080
     21          1           0        2.508762    1.994857   -2.275210
     22          1           0        2.936382   -2.738517    1.497760
     23          1           0       -0.692825   -2.637103   -1.049005
     24          1           0       -3.161372   -2.707316   -1.452591
     25          1           0       -4.576136   -0.802975   -0.671647
     26          1           0       -3.558461    1.104297    0.509326
     27          1           0       -0.968054    3.074865    2.030071
     28          1           0       -2.162143    2.940723    0.695383
     29          1           0       -2.439943    2.072844    2.248572
 ---------------------------------------------------------------------

 The electronic state is 1-A.
 Alpha  occ. eigenvalues --  -18.97455 -18.96672 -14.16402 -10.13980 -10.13490
 Alpha  occ. eigenvalues --  -10.13215 -10.12866 -10.11038 -10.09607 -10.08943
 Alpha  occ. eigenvalues --  -10.08344 -10.07554 -10.07465 -10.07178 -10.07075
 Alpha  occ. eigenvalues --  -10.06468  -1.17049  -1.15945  -1.04182  -0.95855
 Alpha  occ. eigenvalues --   -0.90638  -0.89157  -0.85592  -0.84526  -0.81288
 Alpha  occ. eigenvalues --   -0.79761  -0.74510  -0.71453  -0.69664  -0.68756
 Alpha  occ. eigenvalues --   -0.64675  -0.62918  -0.60835  -0.59535  -0.58626
 Alpha  occ. eigenvalues --   -0.57406  -0.56775  -0.56354  -0.53954  -0.53033
 Alpha  occ. eigenvalues --   -0.52605  -0.51223  -0.50677  -0.50011  -0.48237
 Alpha  occ. eigenvalues --   -0.47612  -0.45876  -0.44514  -0.43692  -0.43102
 Alpha  occ. eigenvalues --   -0.41441  -0.41120  -0.37595  -0.34538  -0.33803
 Alpha  occ. eigenvalues --   -0.31290  -0.29778
 Alpha virt. eigenvalues --    0.04821   0.07428   0.09151   0.09907   0.14389
 Alpha virt. eigenvalues --    0.15252   0.16631   0.17549   0.19398   0.19720
 Alpha virt. eigenvalues --    0.21113   0.21484   0.21767   0.22207   0.22365

  Beta  occ. eigenvalues --  -18.97455 -18.96672 -14.16402 -10.13980 -10.13490
  Beta  occ. eigenvalues --  -10.13215 -10.12866 -10.11038 -10.09607 -10.08943
  Beta  occ. eigenvalues --  -10.08344 -10.07554 -10.07465 -10.07178 -10.07075
  Beta  occ. eigenvalues --  -10.06468  -1.17049  -1.15945  -1.04182  -0.95855
  Beta  occ. eigenvalues --   -0.90638  -0.89157  -0.85592  -0.84526  -0.81288
  Beta  occ. eigenvalues --   -0.79761  -0.74510  -0.71453  -0.69664  -0.68756
  Beta  occ. eigenvalues --   -0.64675  -0.62918  -0.60835  -0.59535  -0.58626
  Beta  occ. eigenvalues --   -0.57406  -0.56775  -0.56354  -0.53954  -0.53033
  Beta  occ. eigenvalues --   -0.52605  -0.51223  -0.50677  -0.50011  -0.48237
  Beta  occ. eigenvalues --   -0.47612  -0.45876  -0.44514  -0.43692  -0.43102
  Beta  occ. eigenvalues --   -0.41441  -0.41120  -0.37595  -0.34538  -0.33803
  Beta  occ. eigenvalues --   -0.31290  -0.29778
  Beta virt. eigenvalues --    0.04821   0.07428   0.09151   0.09907   0.14389
  Beta virt. eigenvalues --    0.15252   0.16631   0.17549   0.19398   0.19720
  Beta virt. eigenvalues --    0.21113   0.21484   0.21767   0.22207   0.22365

 Mulliken charges and spin densities:
               1          2
     1  C   -0.039611  -0.000000
     2  C   -0.005050   0.000000
     3  C    0.129239  -0.000000
     4  O   -0.232294   0.000000
     5  C    0.051222  -0.000000
     6  C    0.010977  -0.000000
     7  N   -0.171486  -0.000000
     8  C    0.068122  -0.000000
     9  C   -0.014638   0.000000
    10  C    0.046586  -0.000000
    11  C    0.007739   0.000000
    12  C    0.016061   0.000000
    13  C   -0.051533  -0.000000
    14  C    0.124984  -0.000000
    15  O   -0.242138  -0.000000
    16  C    0.054525   0.000000
    17  H   -0.001958   0.000000
    18  H    0.002643   0.000000
    19  H    0.056598   0.000000
    20  H    0.044747   0.000000
    21  H    0.045336   0.000000
    22  H    0.004208   0.000000
    23  H   -0.017376  -0.000000
    24  H   -0.011396  -0.000000
    25  H   -0.008702   0.000000
    26  H   -0.006805  -0.000000
    27  H    0.051393  -0.000000
    28  H    0.042815  -0.000000
    29  H    0.045792  -0.000000
 Sum of Mulliken charges =  -0.00000   0.00000

 Dipole moment (field-independent basis, Debye):
    X=              1.0033    Y=              3.5332    Z=             -0.7150  Tot=              3.7419
 Quadrupole moment (field-independent basis, Debye-Ang):
   XX=            -78.0471   YY=            -84.2769   ZZ=            -92.5743
   XY=             -0.0065   XZ=             -2.4930   YZ=              2.0893

 Normal termination of Gaussian 16 at Sat Jul 25 00:07:11 2020.
