 Gaussian 16, Revision A.03,
 Gaussian 16:  EM64L-G16RevA.03 25-Dec-2016

 ---------------------------------------------------------------
 #P uLC-wPBE/cc-pVDZ iop(3/107=0263700000, 3/108=0263700000) opt
 ---------------------------------------------------------------

 ----------
 H20 C30 S3
 ----------
 Symbolic Z-matrix:
 Charge =  0 Multiplicity = 1

 SCF Done:  E(ULC-wPBE) =  -2348.42263707     A.U. after   16 cycles
 SCF Done:  E(ULC-wPBE) =  -2348.48246719     A.U. after   13 cycles
 SCF Done:  E(ULC-wPBE) =  -2348.51992003     A.U. after   14 cycles
 SCF Done:  E(ULC-wPBE) =  -2348.52235594     A.U. after   13 cycles
 SCF Done:  E(ULC-wPBE) =  -2348.52303060     A.U. after   13 cycles
 SCF Done:  E(ULC-wPBE) =  -2348.52317602     A.U. after   13 cycles
 SCF Done:  E(ULC-wPBE) =  -2348.52331878     A.U. after   12 cycles
 SCF Done:  E(ULC-wPBE) =  -2348.52334179     A.U. after   12 cycles
 SCF Done:  E(ULC-wPBE) =  -2348.52334742     A.U. after   11 cycles
 SCF Done:  E(ULC-wPBE) =  -2348.52334892     A.U. after   10 cycles
 SCF Done:  E(ULC-wPBE) =  -2348.52334976     A.U. after   10 cycles
 SCF Done:  E(ULC-wPBE) =  -2348.52335000     A.U. after    8 cycles
 SCF Done:  E(ULC-wPBE) =  -2348.52335009     A.U. after    7 cycles
 SCF Done:  E(ULC-wPBE) =  -2348.52335005     A.U. after    7 cycles
 Optimization completed.
    -- Stationary point found.

                         Standard orientation:
 ---------------------------------------------------------------------
 Center     Atomic      Atomic             Coordinates (Angstroms)
 Number     Number       Type             X           Y           Z
 ---------------------------------------------------------------------
      1          6           0      -11.530337    0.259670    0.046215
      2          6           0      -10.617379    1.212452   -0.409810
      3          6           0       -9.257460    0.909968   -0.471621
      4          6           0       -8.783738   -0.349523   -0.069657
      5          6           0       -9.710233   -1.297190    0.396261
      6          6           0      -11.070709   -0.996718    0.447142
      7          6           0       -7.348642   -0.688968   -0.138009
      8          6           0       -6.770289   -1.913757   -0.385607
      9          6           0       -5.348273   -1.877139   -0.378466
     10          6           0       -4.836363   -0.624011   -0.125076
     11         16           0       -6.124439    0.515820    0.121146
     12          6           0       -3.423223   -0.211646   -0.042132
     13          6           0       -2.443852   -1.116095    0.399734
     14          6           0       -1.104598   -0.744852    0.468940
     15          6           0       -0.690992    0.546548    0.103325
     16          6           0       -1.670274    1.451075   -0.338505
     17          6           0       -3.009497    1.079731   -0.407805
     18          6           0        0.722079    0.959027    0.186449
     19          6           0        1.234021    2.212166    0.440435
     20          6           0        2.655726    2.248845    0.447945
     21          6           0        3.234369    1.023874    0.199855
     22         16           0        2.009896   -0.180739   -0.060486
     23          6           0        4.667879    0.685201    0.132837
     24          6           0        5.144054   -0.582284    0.503830
     25          6           0        6.502050   -0.882816    0.448327
     26          6           0        7.437406    0.072001    0.019506
     27          6           0        6.960220    1.337613   -0.359419
     28          6           0        5.602929    1.638302   -0.303979
     29          6           0        8.881485   -0.226706   -0.031195
     30          6           0        9.938486    0.632970    0.169690
     31          6           0       11.210234    0.000719    0.043901
     32          6           0       11.105317   -1.332942   -0.252924
     33         16           0        9.460793   -1.826723   -0.386900
     34          1           0      -12.599575    0.496802    0.091706
     35          1           0      -10.967409    2.200904   -0.729768
     36          1           0       -8.550570    1.656908   -0.853007
     37          1           0       -9.353633   -2.274759    0.740673
     38          1           0      -11.778174   -1.749155    0.815112
     39          1           0       -7.355016   -2.812421   -0.603476
     40          1           0       -4.716434   -2.744733   -0.590798
     41          1           0       -2.741714   -2.120336    0.721700
     42          1           0       -0.366191   -1.465248    0.841144
     43          1           0       -1.372451    2.455349   -0.660447
     44          1           0       -3.747978    1.800064   -0.779951
     45          1           0        0.602103    3.079579    0.653082
     46          1           0        3.239800    3.147672    0.666855
     47          1           0        4.440445   -1.341141    0.866781
     48          1           0        6.846483   -1.873632    0.768137
     49          1           0        7.664248    2.089679   -0.733343
     50          1           0        5.255176    2.623391   -0.635267
     51          1           0        9.803986    1.687241    0.429536
     52          1           0       12.166681    0.514980    0.175947
     53          1           0       11.907870   -2.057968   -0.405911
 ---------------------------------------------------------------------

 The electronic state is 1-A.
 Alpha  occ. eigenvalues --  -88.24768 -88.24684 -88.24674 -10.08392 -10.08391
 Alpha  occ. eigenvalues --  -10.08291 -10.08266 -10.08222 -10.07480 -10.07189
 Alpha  occ. eigenvalues --  -10.07181 -10.07178 -10.07152 -10.06983 -10.05808
 Alpha  occ. eigenvalues --  -10.05804 -10.05794 -10.05790 -10.05773 -10.05767
 Alpha  occ. eigenvalues --  -10.05755 -10.05751 -10.05484 -10.05480 -10.05450
 Alpha  occ. eigenvalues --  -10.05443 -10.05394 -10.05373 -10.05347 -10.05339
 Alpha  occ. eigenvalues --  -10.05304 -10.05256 -10.05215  -7.85263  -7.85185
 Alpha  occ. eigenvalues --   -7.85168  -5.87168  -5.87083  -5.87073  -5.86685
 Alpha  occ. eigenvalues --   -5.86596  -5.86590  -5.86296  -5.86235  -5.86201
 Alpha  occ. eigenvalues --   -0.97651  -0.97320  -0.96850  -0.94765  -0.93992
 Alpha  occ. eigenvalues --   -0.93378  -0.88157  -0.86574  -0.84698  -0.83797
 Alpha  occ. eigenvalues --   -0.83627  -0.83170  -0.82073  -0.81802  -0.81727
 Alpha  occ. eigenvalues --   -0.81190  -0.79099  -0.76984  -0.72105  -0.70762
 Alpha  occ. eigenvalues --   -0.70166  -0.69836  -0.69178  -0.68284  -0.64367
 Alpha  occ. eigenvalues --   -0.63863  -0.63705  -0.63611  -0.63292  -0.62972
 Alpha  occ. eigenvalues --   -0.61255  -0.60872  -0.59839  -0.57980  -0.55749
 Alpha  occ. eigenvalues --   -0.55097  -0.54630  -0.54045  -0.53655  -0.53288
 Alpha  occ. eigenvalues --   -0.52996  -0.52135  -0.50905  -0.50720  -0.50400
 Alpha  occ. eigenvalues --   -0.49971  -0.49656  -0.49205  -0.49023  -0.48257
 Alpha  occ. eigenvalues --   -0.48104  -0.47717  -0.47350  -0.47053  -0.46498
 Alpha  occ. eigenvalues --   -0.46044  -0.45381  -0.45268  -0.44778  -0.43922
 Alpha  occ. eigenvalues --   -0.43452  -0.43205  -0.42759  -0.42511  -0.41924
 Alpha  occ. eigenvalues --   -0.41412  -0.40942  -0.38749  -0.37073  -0.34921
 Alpha  occ. eigenvalues --   -0.34601  -0.34584  -0.34193  -0.33733  -0.33623
 Alpha  occ. eigenvalues --   -0.33580  -0.31648  -0.29132  -0.27042
 Alpha virt. eigenvalues --   -0.00633   0.01549   0.04131   0.04959   0.05227
 Alpha virt. eigenvalues --    0.05637   0.06610   0.08627   0.10343   0.11085
 Alpha virt. eigenvalues --    0.11152   0.11644   0.12902   0.13160   0.13593

  Beta  occ. eigenvalues --  -88.24768 -88.24684 -88.24674 -10.08392 -10.08391
  Beta  occ. eigenvalues --  -10.08291 -10.08266 -10.08222 -10.07480 -10.07189
  Beta  occ. eigenvalues --  -10.07181 -10.07178 -10.07152 -10.06983 -10.05808
  Beta  occ. eigenvalues --  -10.05804 -10.05794 -10.05790 -10.05773 -10.05767
  Beta  occ. eigenvalues --  -10.05755 -10.05751 -10.05484 -10.05480 -10.05450
  Beta  occ. eigenvalues --  -10.05443 -10.05394 -10.05373 -10.05347 -10.05339
  Beta  occ. eigenvalues --  -10.05304 -10.05256 -10.05215  -7.85263  -7.85185
  Beta  occ. eigenvalues --   -7.85168  -5.87168  -5.87083  -5.87073  -5.86685
  Beta  occ. eigenvalues --   -5.86596  -5.86590  -5.86296  -5.86235  -5.86201
  Beta  occ. eigenvalues --   -0.97651  -0.97320  -0.96850  -0.94765  -0.93992
  Beta  occ. eigenvalues --   -0.93378  -0.88157  -0.86574  -0.84698  -0.83797
  Beta  occ. eigenvalues --   -0.83627  -0.83170  -0.82073  -0.81802  -0.81727
  Beta  occ. eigenvalues --   -0.81190  -0.79099  -0.76984  -0.72105  -0.70762
  Beta  occ. eigenvalues --   -0.70166  -0.69836  -0.69178  -0.68284  -0.64367
  Beta  occ. eigenvalues --   -0.63863  -0.63705  -0.63611  -0.63292  -0.62972
  Beta  occ. eigenvalues --   -0.61255  -0.60872  -0.59839  -0.57980  -0.55749
  Beta  occ. eigenvalues --   -0.55097  -0.54630  -0.54045  -0.53655  -0.53288
  Beta  occ. eigenvalues --   -0.52996  -0.52135  -0.50905  -0.50720  -0.50400
  Beta  occ. eigenvalues --   -0.49971  -0.49656  -0.49205  -0.49023  -0.48257
  Beta  occ. eigenvalues --   -0.48104  -0.47717  -0.47350  -0.47053  -0.46498
  Beta  occ. eigenvalues --   -0.46044  -0.45381  -0.45268  -0.44778  -0.43922
  Beta  occ. eigenvalues --   -0.43452  -0.43205  -0.42759  -0.42511  -0.41924
  Beta  occ. eigenvalues --   -0.41412  -0.40942  -0.38749  -0.37073  -0.34921
  Beta  occ. eigenvalues --   -0.34601  -0.34584  -0.34193  -0.33733  -0.33623
  Beta  occ. eigenvalues --   -0.33580  -0.31648  -0.29132  -0.27042
  Beta virt. eigenvalues --   -0.00633   0.01549   0.04131   0.04959   0.05227
  Beta virt. eigenvalues --    0.05637   0.06610   0.08627   0.10343   0.11085
  Beta virt. eigenvalues --    0.11152   0.11644   0.12902   0.13160   0.13593

 Mulliken charges and spin densities:
               1          2
     1  C    0.015204  -0.000000
     2  C    0.025443   0.000000
     3  C   -0.003781  -0.000000
     4  C    0.046242   0.000000
     5  C   -0.003379  -0.000000
     6  C    0.026519   0.000000
     7  C   -0.148476   0.000000
     8  C    0.035482  -0.000000
     9  C    0.030431  -0.000000
    10  C   -0.152235   0.000000
    11  S    0.157670   0.000000
    12  C    0.063494  -0.000000
    13  C    0.005811   0.000000
    14  C    0.007988  -0.000000
    15  C    0.062861  -0.000000
    16  C    0.005776   0.000000
    17  C    0.008096   0.000000
    18  C   -0.151566  -0.000000
    19  C    0.032080   0.000000
    20  C    0.032120  -0.000000
    21  C   -0.151117   0.000000
    22  S    0.157955  -0.000000
    23  C    0.062058   0.000000
    24  C    0.005765  -0.000000
    25  C    0.008402   0.000000
    26  C    0.067222  -0.000000
    27  C    0.008486   0.000000
    28  C    0.006539  -0.000000
    29  C   -0.156145  -0.000000
    30  C    0.006228   0.000000
    31  C    0.061593   0.000000
    32  C   -0.131933  -0.000000
    33  S    0.153600   0.000000
    34  H   -0.009702  -0.000000
    35  H   -0.008125  -0.000000
    36  H   -0.011984   0.000000
    37  H   -0.017786  -0.000000
    38  H   -0.008246   0.000000
    39  H   -0.011030   0.000000
    40  H   -0.010854  -0.000000
    41  H   -0.016524   0.000000
    42  H   -0.010531   0.000000
    43  H   -0.016685   0.000000
    44  H   -0.010554  -0.000000
    45  H   -0.010652  -0.000000
    46  H   -0.011142  -0.000000
    47  H   -0.010343  -0.000000
    48  H   -0.009823   0.000000
    49  H   -0.016235  -0.000000
    50  H   -0.016900  -0.000000
    51  H   -0.008529   0.000000
    52  H   -0.005850   0.000000
    53  H    0.027063  -0.000000
 Sum of Mulliken charges =  -0.00000  -0.00000

 Dipole moment (field-independent basis, Debye):
    X=              0.0208    Y=              0.4016    Z=              0.1094  Tot=              0.4168
 Quadrupole moment (field-independent basis, Debye-Ang):
   XX=           -170.2107   YY=           -189.1812   ZZ=           -221.0654
   XY=              5.9263   XZ=              1.1720   YZ=             -3.6666

 Normal termination of Gaussian 16 at Sun Jul 26 13:55:28 2020.
