 Gaussian 16, Revision A.03,
 Gaussian 16:  EM64L-G16RevA.03 25-Dec-2016

 ---------------------------------------------------------------
 #P uLC-wPBE/cc-pVDZ iop(3/107=0455200000, 3/108=0455200000) opt
 ---------------------------------------------------------------

 -------------
 H14 C24 S3 N6
 -------------
 Symbolic Z-matrix:
 Charge =  0 Multiplicity = 1

 SCF Done:  E(ULC-wPBE) =  -2444.79713124     A.U. after   17 cycles
 SCF Done:  E(ULC-wPBE) =  -2444.86371697     A.U. after   14 cycles
 SCF Done:  E(ULC-wPBE) =  -2444.90615970     A.U. after   15 cycles
 SCF Done:  E(ULC-wPBE) =  -2444.90798506     A.U. after   13 cycles
 SCF Done:  E(ULC-wPBE) =  -2444.90817213     A.U. after   12 cycles
 SCF Done:  E(ULC-wPBE) =  -2444.90819557     A.U. after   12 cycles
 SCF Done:  E(ULC-wPBE) =  -2444.90822212     A.U. after   11 cycles
 SCF Done:  E(ULC-wPBE) =  -2444.90823675     A.U. after   11 cycles
 SCF Done:  E(ULC-wPBE) =  -2444.90832742     A.U. after   13 cycles
 SCF Done:  E(ULC-wPBE) =  -2444.90813966     A.U. after   16 cycles
 SCF Done:  E(ULC-wPBE) =  -2444.90623485     A.U. after   15 cycles
 SCF Done:  E(ULC-wPBE) =  -2444.90915552     A.U. after   13 cycles
 SCF Done:  E(ULC-wPBE) =  -2444.90957868     A.U. after   14 cycles
 SCF Done:  E(ULC-wPBE) =  -2444.90964763     A.U. after   12 cycles
 SCF Done:  E(ULC-wPBE) =  -2444.90965018     A.U. after   10 cycles
 SCF Done:  E(ULC-wPBE) =  -2444.90965524     A.U. after    9 cycles
 SCF Done:  E(ULC-wPBE) =  -2444.90965792     A.U. after   11 cycles
 SCF Done:  E(ULC-wPBE) =  -2444.90965874     A.U. after    9 cycles
 SCF Done:  E(ULC-wPBE) =  -2444.90965893     A.U. after    8 cycles
 SCF Done:  E(ULC-wPBE) =  -2444.90965893     A.U. after    8 cycles
 Optimization completed.
    -- Stationary point found.

                         Standard orientation:
 ---------------------------------------------------------------------
 Center     Atomic      Atomic             Coordinates (Angstroms)
 Number     Number       Type             X           Y           Z
 ---------------------------------------------------------------------
      1          6           0       10.644614    2.204143   -0.430215
      2          6           0       10.771051    0.935154    0.112776
      3          6           0        9.633133    0.174578    0.308231
      4          6           0        8.410816    0.726604   -0.052577
      5          7           0        8.275909    1.941445   -0.573621
      6          6           0        9.375567    2.658342   -0.755363
      7          6           0        7.166078   -0.037035    0.132451
      8          7           0        7.106507   -1.232960    0.625779
      9          6           0        5.815460   -1.666015    0.668007
     10          6           0        4.874903   -0.797037    0.201954
     11         16           0        5.654537    0.645479   -0.320716
     12          6           0        3.423049   -0.993047    0.131729
     13          6           0        2.870805   -2.255399   -0.074637
     14          6           0        1.499478   -2.400686   -0.112209
     15          6           0        0.714177   -1.265922    0.045751
     16          7           0        1.220226   -0.052357    0.235716
     17          6           0        2.535431    0.071955    0.279844
     18          6           0       -0.752382   -1.360514    0.004162
     19          7           0       -1.408418   -2.463782   -0.168773
     20          6           0       -2.750040   -2.226449   -0.158380
     21          6           0       -3.128452   -0.929560    0.021194
     22         16           0       -1.721863    0.047777    0.185814
     23          6           0       -4.488324   -0.382813    0.078295
     24          6           0       -4.825428    0.697859    0.889757
     25          6           0       -6.127283    1.154278    0.909081
     26          6           0       -7.063269    0.505689    0.113884
     27          7           0       -6.761015   -0.522384   -0.671884
     28          6           0       -5.508200   -0.943311   -0.689849
     29          6           0       -8.467381    0.944859    0.105746
     30          7           0       -8.925199    1.927573    0.814441
     31          6           0      -10.262774    2.091726    0.591706
     32          6           0      -10.817568    1.225429   -0.292186
     33         16           0       -9.629016    0.149477   -0.882396
     34          1           0       11.513776    2.836190   -0.600890
     35          1           0       11.750320    0.541357    0.381925
     36          1           0        9.660166   -0.827630    0.729090
     37          1           0        9.235489    3.651883   -1.184847
     38          1           0        5.598322   -2.648605    1.081038
     39          1           0        3.518877   -3.118221   -0.221357
     40          1           0        1.018963   -3.362738   -0.272062
     41          1           0        2.916578    1.080889    0.452076
     42          1           0       -3.438762   -3.061156   -0.267295
     43          1           0       -4.068552    1.172270    1.514129
     44          1           0       -6.443012    1.991453    1.526579
     45          1           0       -5.287965   -1.771538   -1.365720
     46          1           0      -10.797990    2.880347    1.114874
     47          1           0      -11.851566    1.172077   -0.617282
 ---------------------------------------------------------------------

 The electronic state is 1-A.
 Alpha  occ. eigenvalues --  -88.36513 -88.36488 -88.35839 -14.26282 -14.25929
 Alpha  occ. eigenvalues --  -14.25920 -14.25665 -14.25648 -14.24980 -10.22672
 Alpha  occ. eigenvalues --  -10.22672 -10.21996 -10.21303 -10.21115 -10.20958
 Alpha  occ. eigenvalues --  -10.20397 -10.20127 -10.20075 -10.20002 -10.19971
 Alpha  occ. eigenvalues --  -10.19261 -10.19040 -10.18970 -10.18921 -10.18798
 Alpha  occ. eigenvalues --  -10.18523 -10.18486 -10.18393 -10.18225 -10.17433
 Alpha  occ. eigenvalues --  -10.17292 -10.17133 -10.17065  -7.97422  -7.97402
 Alpha  occ. eigenvalues --   -7.96763  -5.98675  -5.98653  -5.98140  -5.98121
 Alpha  occ. eigenvalues --   -5.98004  -5.97793  -5.97772  -5.97471  -5.97153
 Alpha  occ. eigenvalues --   -1.16534  -1.16345  -1.15779  -1.14030  -1.13557
 Alpha  occ. eigenvalues --   -1.13422  -1.02432  -1.02216  -0.99370  -0.98469
 Alpha  occ. eigenvalues --   -0.98069  -0.97132  -0.97072  -0.96890  -0.96062
 Alpha  occ. eigenvalues --   -0.92500  -0.90638  -0.88922  -0.83300  -0.82416
 Alpha  occ. eigenvalues --   -0.81227  -0.80711  -0.79986  -0.79601  -0.74376
 Alpha  occ. eigenvalues --   -0.73740  -0.73430  -0.72587  -0.72227  -0.72101
 Alpha  occ. eigenvalues --   -0.68595  -0.67667  -0.66106  -0.65310  -0.64638
 Alpha  occ. eigenvalues --   -0.64509  -0.64095  -0.61516  -0.60634  -0.60440
 Alpha  occ. eigenvalues --   -0.59907  -0.59676  -0.59381  -0.58984  -0.58844
 Alpha  occ. eigenvalues --   -0.56800  -0.56470  -0.56304  -0.56202  -0.55762
 Alpha  occ. eigenvalues --   -0.55169  -0.54642  -0.54513  -0.54277  -0.53360
 Alpha  occ. eigenvalues --   -0.51987  -0.51038  -0.50308  -0.49837  -0.49248
 Alpha  occ. eigenvalues --   -0.48951  -0.45855  -0.44176  -0.42173  -0.41875
 Alpha  occ. eigenvalues --   -0.41704  -0.41453  -0.41346  -0.41158  -0.40396
 Alpha  occ. eigenvalues --   -0.39988  -0.39856  -0.39800  -0.39646  -0.39427
 Alpha  occ. eigenvalues --   -0.39221  -0.36219  -0.33685  -0.31565
 Alpha virt. eigenvalues --   -0.01262   0.00970   0.03130   0.05092   0.05321
 Alpha virt. eigenvalues --    0.05566   0.08116   0.10332   0.12459   0.13086
 Alpha virt. eigenvalues --    0.13488   0.14486   0.14865   0.15415   0.15795

  Beta  occ. eigenvalues --  -88.36513 -88.36488 -88.35839 -14.26282 -14.25929
  Beta  occ. eigenvalues --  -14.25920 -14.25665 -14.25648 -14.24980 -10.22672
  Beta  occ. eigenvalues --  -10.22672 -10.21996 -10.21303 -10.21115 -10.20958
  Beta  occ. eigenvalues --  -10.20397 -10.20127 -10.20075 -10.20002 -10.19971
  Beta  occ. eigenvalues --  -10.19261 -10.19040 -10.18970 -10.18921 -10.18798
  Beta  occ. eigenvalues --  -10.18523 -10.18486 -10.18393 -10.18225 -10.17433
  Beta  occ. eigenvalues --  -10.17292 -10.17133 -10.17065  -7.97422  -7.97402
  Beta  occ. eigenvalues --   -7.96763  -5.98675  -5.98653  -5.98140  -5.98121
  Beta  occ. eigenvalues --   -5.98004  -5.97793  -5.97772  -5.97471  -5.97153
  Beta  occ. eigenvalues --   -1.16534  -1.16345  -1.15779  -1.14030  -1.13557
  Beta  occ. eigenvalues --   -1.13422  -1.02432  -1.02216  -0.99370  -0.98469
  Beta  occ. eigenvalues --   -0.98069  -0.97132  -0.97072  -0.96890  -0.96062
  Beta  occ. eigenvalues --   -0.92500  -0.90638  -0.88922  -0.83300  -0.82416
  Beta  occ. eigenvalues --   -0.81227  -0.80711  -0.79986  -0.79601  -0.74376
  Beta  occ. eigenvalues --   -0.73740  -0.73430  -0.72587  -0.72227  -0.72101
  Beta  occ. eigenvalues --   -0.68595  -0.67667  -0.66106  -0.65310  -0.64638
  Beta  occ. eigenvalues --   -0.64509  -0.64095  -0.61516  -0.60634  -0.60440
  Beta  occ. eigenvalues --   -0.59907  -0.59676  -0.59381  -0.58984  -0.58844
  Beta  occ. eigenvalues --   -0.56800  -0.56470  -0.56304  -0.56202  -0.55762
  Beta  occ. eigenvalues --   -0.55169  -0.54642  -0.54513  -0.54277  -0.53360
  Beta  occ. eigenvalues --   -0.51987  -0.51038  -0.50308  -0.49837  -0.49248
  Beta  occ. eigenvalues --   -0.48951  -0.45855  -0.44176  -0.42173  -0.41875
  Beta  occ. eigenvalues --   -0.41704  -0.41453  -0.41346  -0.41158  -0.40396
  Beta  occ. eigenvalues --   -0.39988  -0.39856  -0.39800  -0.39646  -0.39427
  Beta  occ. eigenvalues --   -0.39221  -0.36219  -0.33685  -0.31565
  Beta virt. eigenvalues --   -0.01262   0.00970   0.03130   0.05092   0.05321
  Beta virt. eigenvalues --    0.05566   0.08116   0.10332   0.12459   0.13086
  Beta virt. eigenvalues --    0.13488   0.14486   0.14865   0.15415   0.15795

 Mulliken charges and spin densities:
               1          2
     1  C   -0.070423  -0.000000
     2  C    0.056800   0.000000
     3  C    0.004455  -0.000000
     4  C    0.067246   0.000000
     5  N   -0.223340  -0.000000
     6  C    0.087197   0.000000
     7  C    0.000539  -0.000000
     8  N   -0.194767  -0.000000
     9  C    0.114307  -0.000000
    10  C   -0.238324   0.000000
    11  S    0.212035   0.000000
    12  C   -0.050979   0.000000
    13  C    0.058953  -0.000000
    14  C    0.025657  -0.000000
    15  C    0.071765  -0.000000
    16  N   -0.220427   0.000000
    17  C    0.100603   0.000000
    18  C   -0.005318   0.000000
    19  N   -0.195871   0.000000
    20  C    0.116157  -0.000000
    21  C   -0.236313  -0.000000
    22  S    0.210504  -0.000000
    23  C   -0.058657   0.000000
    24  C    0.063302  -0.000000
    25  C    0.023088   0.000000
    26  C    0.077014  -0.000000
    27  N   -0.218411   0.000000
    28  C    0.099122   0.000000
    29  C   -0.020782   0.000000
    30  N   -0.201744  -0.000000
    31  C    0.103270   0.000000
    32  C   -0.202673  -0.000000
    33  S    0.203362   0.000000
    34  H    0.025735  -0.000000
    35  H    0.029419   0.000000
    36  H    0.033432  -0.000000
    37  H    0.032235   0.000000
    38  H    0.028126  -0.000000
    39  H    0.022088   0.000000
    40  H    0.033845  -0.000000
    41  H    0.035654   0.000000
    42  H    0.030600   0.000000
    43  H    0.027917  -0.000000
    44  H    0.033653   0.000000
    45  H    0.029085   0.000000
    46  H    0.026963   0.000000
    47  H    0.053903  -0.000000
 Sum of Mulliken charges =  -0.00000  -0.00000

 Dipole moment (field-independent basis, Debye):
    X=              3.0532    Y=              0.0624    Z=              0.2289  Tot=              3.0624
 Quadrupole moment (field-independent basis, Debye-Ang):
   XX=           -143.0361   YY=           -197.7108   ZZ=           -210.2492
   XY=              3.2858   XZ=              0.1197   YZ=              0.7093

 Normal termination of Gaussian 16 at Fri Jul 24 22:43:45 2020.
