 Gaussian 16, Revision A.03,
 Gaussian 16:  EM64L-G16RevA.03 25-Dec-2016

 ---------------------------------------------------------------
 #P uLC-wPBE/cc-pVDZ iop(3/107=0311600000, 3/108=0311600000) opt
 ---------------------------------------------------------------

 -----------------
 H23 C63 S7 N7 F14
 -----------------
 Symbolic Z-matrix:
 Charge =  0 Multiplicity = 1

 SCF Done:  E(ULC-wPBE) =  -6979.00452884     A.U. after   17 cycles
 SCF Done:  E(ULC-wPBE) =  -6979.10175465     A.U. after   14 cycles
 SCF Done:  E(ULC-wPBE) =  -6979.20040554     A.U. after   14 cycles
 SCF Done:  E(ULC-wPBE) =  -6979.22473424     A.U. after   16 cycles
 SCF Done:  E(ULC-wPBE) =  -6979.22928233     A.U. after   14 cycles
 SCF Done:  E(ULC-wPBE) =  -6979.23052925     A.U. after   13 cycles
 SCF Done:  E(ULC-wPBE) =  -6979.23225006     A.U. after   13 cycles
 SCF Done:  E(ULC-wPBE) =  -6979.23380884     A.U. after   14 cycles
 SCF Done:  E(ULC-wPBE) =  -6979.23449320     A.U. after   13 cycles
 SCF Done:  E(ULC-wPBE) =  -6979.23493267     A.U. after   14 cycles
 SCF Done:  E(ULC-wPBE) =  -6979.23542798     A.U. after   10 cycles
 SCF Done:  E(ULC-wPBE) =  -6979.23542925     A.U. after   10 cycles
 SCF Done:  E(ULC-wPBE) =  -6979.23542995     A.U. after    8 cycles
 SCF Done:  E(ULC-wPBE) =  -6979.23543018     A.U. after   10 cycles
 SCF Done:  E(ULC-wPBE) =  -6979.23543030     A.U. after   10 cycles
 SCF Done:  E(ULC-wPBE) =  -6979.23543009     A.U. after   10 cycles
 SCF Done:  E(ULC-wPBE) =  -6979.23543043     A.U. after   10 cycles
 SCF Done:  E(ULC-wPBE) =  -6979.23543044     A.U. after    8 cycles
 SCF Done:  E(ULC-wPBE) =  -6979.23543030     A.U. after    7 cycles
 SCF Done:  E(ULC-wPBE) =  -6979.23543044     A.U. after    7 cycles
 Optimization completed.
    -- Stationary point found.

                         Standard orientation:
 ---------------------------------------------------------------------
 Center     Atomic      Atomic             Coordinates (Angstroms)
 Number     Number       Type             X           Y           Z
 ---------------------------------------------------------------------
      1          6           0      -25.348752    5.648505    1.005099
      2          6           0      -25.742709    4.328104    1.194533
      3          6           0      -24.827890    3.306597    0.976932
      4          9           0      -25.233613    2.052810    1.191604
      5          6           0      -23.506765    3.547417    0.565528
      6          6           0      -23.164714    4.895910    0.403841
      7          9           0      -21.904827    5.195143    0.029707
      8          6           0      -24.047757    5.943292    0.608637
      9          6           0      -22.559967    2.444672    0.310832
     10          7           0      -22.934875    1.237583   -0.022679
     11          6           0      -21.857613    0.411058   -0.150438
     12          6           0      -20.626220    0.966759    0.088250
     13         16           0      -20.836890    2.634105    0.484844
     14          6           0      -19.305024    0.323952    0.008967
     15          6           0      -18.160753    1.052747   -0.332510
     16          6           0      -16.941611    0.403928   -0.406984
     17          9           0      -15.862402    1.141562   -0.733044
     18          6           0      -16.764378   -0.964944   -0.171192
     19          6           0      -17.936145   -1.656789    0.179016
     20          9           0      -17.874394   -2.958197    0.466709
     21          6           0      -19.175282   -1.043213    0.274402
     22          6           0      -15.460157   -1.641564   -0.287994
     23          7           0      -15.333199   -2.928372   -0.483239
     24          6           0      -14.019024   -3.290233   -0.509371
     25          6           0      -13.102348   -2.285427   -0.329589
     26         16           0      -13.946195   -0.792704   -0.127320
     27          6           0      -11.634053   -2.380522   -0.326755
     28          6           0      -11.010325   -3.559559    0.094278
     29          6           0       -9.628102   -3.660645    0.077488
     30          9           0       -9.093331   -4.802977    0.512640
     31          6           0       -8.789130   -2.614638   -0.342492
     32          6           0       -9.458924   -1.449122   -0.734705
     33          9           0       -8.724261   -0.393929   -1.136625
     34          6           0      -10.834983   -1.310151   -0.742473
     35          6           0       -7.321809   -2.750924   -0.372992
     36          7           0       -6.708498   -3.905234   -0.416357
     37          6           0       -5.355614   -3.739187   -0.393722
     38          6           0       -4.896842   -2.447834   -0.327776
     39         16           0       -6.251115   -1.377261   -0.305026
     40          6           0       -3.503840   -1.974417   -0.305374
     41          6           0       -3.147937   -0.733460   -0.842672
     42          6           0       -1.826227   -0.315622   -0.817469
     43          9           0       -1.548613    0.867306   -1.368275
     44          6           0       -0.790025   -1.089203   -0.268678
     45          6           0       -1.194126   -2.328022    0.245302
     46          9           0       -0.256881   -3.133916    0.781214
     47          6           0       -2.501489   -2.778248    0.248774
     48          6           0        0.605225   -0.615677   -0.227890
     49          7           0        0.938460    0.646296   -0.310829
     50          6           0        2.293407    0.794807   -0.289434
     51          6           0        3.035383   -0.355278   -0.193635
     52         16           0        1.961426   -1.704604   -0.113587
     53          6           0        4.498999   -0.494902   -0.134510
     54          6           0        5.317173    0.450265   -0.763131
     55          6           0        6.691067    0.316182   -0.682445
     56          9           0        7.444704    1.250363   -1.294300
     57          6           0        7.341483   -0.730510   -0.016537
     58          6           0        6.483790   -1.654716    0.602635
     59          9           0        6.997046   -2.672068    1.296428
     60          6           0        5.102040   -1.552032    0.554045
     61          6           0        8.808079   -0.872377    0.024489
     62          7           0        9.413621   -2.007575    0.258997
     63          6           0       10.766682   -1.842390    0.281229
     64          6           0       11.233197   -0.569902    0.067885
     65         16           0        9.886876    0.479992   -0.188288
     66          6           0       12.628683   -0.105225    0.022237
     67          6           0       13.008816    0.980485   -0.772752
     68          6           0       14.332636    1.391284   -0.805017
     69          9           0       14.635202    2.417219   -1.602539
     70          6           0       15.346967    0.761710   -0.065075
     71          6           0       14.919491   -0.327134    0.705310
     72          9           0       15.835081   -0.990983    1.437269
     73          6           0       13.608911   -0.763135    0.773275
     74          6           0       16.744137    1.231060   -0.092712
     75          7           0       17.087182    2.445760   -0.434651
     76          6           0       18.442581    2.593240   -0.412536
     77          6           0       19.174557    1.488947   -0.056244
     78         16           0       18.089943    0.189442    0.282929
     79          6           0       20.635879    1.361895    0.066247
     80          6           0       21.214686    0.482007    0.986047
     81          6           0       22.594595    0.390177    1.087351
     82          9           0       23.088026   -0.447782    2.001688
     83          6           0       23.471378    1.151870    0.299432
     84          6           0       22.845935    2.026346   -0.597081
     85          9           0       23.620107    2.798787   -1.383030
     86          6           0       21.474401    2.142230   -0.737010
     87          6           0       24.936816    1.015964    0.405261
     88          7           0       25.526793   -0.074844    0.816401
     89          6           0       26.884348    0.091667    0.856233
     90          6           0       27.345348    1.320036    0.479397
     91         16           0       26.029172    2.323971    0.035707
     92          1           0      -26.063338    6.459351    1.173559
     93          1           0      -26.752825    4.062883    1.515578
     94          1           0      -23.699633    6.967023    0.453664
     95          1           0      -22.018934   -0.625454   -0.457769
     96          1           0      -18.197853    2.120598   -0.561770
     97          1           0      -20.027505   -1.651716    0.584930
     98          1           0      -13.761477   -4.335971   -0.696244
     99          1           0      -11.583296   -4.411385    0.467230
    100          1           0      -11.261543   -0.366997   -1.092831
    101          1           0       -4.713303   -4.621452   -0.456265
    102          1           0       -3.884201   -0.075094   -1.310930
    103          1           0       -2.720131   -3.745111    0.706873
    104          1           0        2.715655    1.802586   -0.320506
    105          1           0        4.906049    1.282969   -1.337651
    106          1           0        4.513646   -2.304960    1.084789
    107          1           0       11.403947   -2.716816    0.436553
    108          1           0       12.290961    1.515777   -1.399605
    109          1           0       13.369968   -1.600095    1.432756
    110          1           0       18.872687    3.570317   -0.647350
    111          1           0       20.608546   -0.132567    1.656677
    112          1           0       21.081425    2.827072   -1.491452
    113          1           0       27.513956   -0.742420    1.175531
    114          1           0       28.375808    1.672391    0.425021
 ---------------------------------------------------------------------

 Alpha  occ. eigenvalues --   -0.54281  -0.54261  -0.54234  -0.54159  -0.53971
 Alpha  occ. eigenvalues --   -0.53878  -0.53648  -0.53568  -0.53460  -0.53366
 Alpha  occ. eigenvalues --   -0.53259  -0.52996  -0.52811  -0.51853  -0.51124
 Alpha  occ. eigenvalues --   -0.51057  -0.50970  -0.50948  -0.50810  -0.50203
 Alpha  occ. eigenvalues --   -0.50174  -0.49395  -0.49214  -0.49083  -0.48960
 Alpha  occ. eigenvalues --   -0.48908  -0.48847  -0.48720  -0.48679  -0.48587
 Alpha  occ. eigenvalues --   -0.48486  -0.48344  -0.48274  -0.48195  -0.48123
 Alpha  occ. eigenvalues --   -0.47905  -0.47780  -0.47691  -0.47440  -0.47273
 Alpha  occ. eigenvalues --   -0.46946  -0.46936  -0.46334  -0.46095  -0.46023
 Alpha  occ. eigenvalues --   -0.45927  -0.45868  -0.45706  -0.45422  -0.43359
 Alpha  occ. eigenvalues --   -0.42826  -0.42131  -0.41313  -0.40449  -0.39701
 Alpha  occ. eigenvalues --   -0.38762  -0.38569  -0.38519  -0.38482  -0.38425
 Alpha  occ. eigenvalues --   -0.38291  -0.38109  -0.37804  -0.37668  -0.37654
 Alpha  occ. eigenvalues --   -0.37642  -0.37594  -0.37452  -0.37201  -0.36720
 Alpha  occ. eigenvalues --   -0.35886  -0.35839  -0.35819  -0.35760  -0.35621
 Alpha  occ. eigenvalues --   -0.35454  -0.35333  -0.35200  -0.34418  -0.33327
 Alpha  occ. eigenvalues --   -0.32205  -0.31176  -0.30352  -0.29843
 Alpha virt. eigenvalues --   -0.03406  -0.02726  -0.01799  -0.00696   0.00497
 Alpha virt. eigenvalues --    0.01698   0.02640   0.04608   0.04924   0.04994
 Alpha virt. eigenvalues --    0.05072   0.05139   0.05257   0.05580   0.05643

  Beta  occ. eigenvalues --  -88.29570 -88.29551 -88.29513 -88.29486 -88.29424
  Beta  occ. eigenvalues --  -88.29190 -88.28395 -24.48573 -24.48562 -24.48534
  Beta  occ. eigenvalues --  -24.48464 -24.48294 -24.48226 -24.47742 -24.47200
  Beta  occ. eigenvalues --  -24.47196 -24.47184 -24.47120 -24.46978 -24.46938
  Beta  occ. eigenvalues --  -24.46544 -14.18464 -14.18457 -14.18421 -14.18390
  Beta  occ. eigenvalues --  -14.18336 -14.18126 -14.17346 -10.18918 -10.18918
  Beta  occ. eigenvalues --  -10.18886 -10.18822 -10.18711 -10.18706 -10.18701
  Beta  occ. eigenvalues --  -10.18666 -10.18637 -10.18531 -10.18486 -10.18340
  Beta  occ. eigenvalues --  -10.18181 -10.18009 -10.16349 -10.16333 -10.16297
  Beta  occ. eigenvalues --  -10.16215 -10.16204 -10.15963 -10.15063 -10.13180
  Beta  occ. eigenvalues --  -10.13167 -10.13161 -10.13103 -10.12965 -10.12888
  Beta  occ. eigenvalues --  -10.12883 -10.12842 -10.12836 -10.12750 -10.12558
  Beta  occ. eigenvalues --  -10.12507 -10.12296 -10.12291 -10.12275 -10.12208
  Beta  occ. eigenvalues --  -10.12053 -10.12048 -10.11785 -10.11780 -10.11743
  Beta  occ. eigenvalues --  -10.11716 -10.11642 -10.11525 -10.11378 -10.11100
  Beta  occ. eigenvalues --  -10.10832 -10.10470 -10.10341 -10.10331 -10.10295
  Beta  occ. eigenvalues --  -10.10239 -10.10119 -10.10108 -10.10103 -10.10094
  Beta  occ. eigenvalues --  -10.10062 -10.09943 -10.09933 -10.09742 -10.09712
  Beta  occ. eigenvalues --  -10.09554  -7.90179  -7.90159  -7.90120  -7.90101
  Beta  occ. eigenvalues --   -7.90032  -7.89799  -7.89019  -5.91961  -5.91942
  Beta  occ. eigenvalues --   -5.91903  -5.91882  -5.91815  -5.91581  -5.91465
  Beta  occ. eigenvalues --   -5.91445  -5.91406  -5.91387  -5.91318  -5.91108
  Beta  occ. eigenvalues --   -5.91089  -5.91084  -5.91050  -5.91031  -5.90962
  Beta  occ. eigenvalues --   -5.90790  -5.90730  -5.90296  -5.89968  -1.32916
  Beta  occ. eigenvalues --   -1.32910  -1.32880  -1.32810  -1.32644  -1.32547
  Beta  occ. eigenvalues --   -1.32107  -1.31948  -1.31944  -1.31936  -1.31873
  Beta  occ. eigenvalues --   -1.31726  -1.31647  -1.31270  -1.08632  -1.08609
  Beta  occ. eigenvalues --   -1.08574  -1.08537  -1.08486  -1.08255  -1.07305
  Beta  occ. eigenvalues --   -1.00952  -1.00823  -1.00676  -1.00534  -1.00411
  Beta  occ. eigenvalues --   -1.00021  -0.99749  -0.95066  -0.94814  -0.94524
  Beta  occ. eigenvalues --   -0.94246  -0.94039  -0.93788  -0.91604  -0.91357
  Beta  occ. eigenvalues --   -0.91245  -0.91169  -0.90918  -0.90599  -0.90241
  Beta  occ. eigenvalues --   -0.89884  -0.88200  -0.88061  -0.88010  -0.87982
  Beta  occ. eigenvalues --   -0.87840  -0.87540  -0.87437  -0.87234  -0.86639
  Beta  occ. eigenvalues --   -0.85890  -0.85041  -0.84176  -0.83423  -0.82828
  Beta  occ. eigenvalues --   -0.79201  -0.78493  -0.77786  -0.77056  -0.76711
  Beta  occ. eigenvalues --   -0.76418  -0.75944  -0.75416  -0.75215  -0.75144
  Beta  occ. eigenvalues --   -0.74953  -0.74821  -0.74616  -0.74589  -0.70888
  Beta  occ. eigenvalues --   -0.70836  -0.70732  -0.70660  -0.70496  -0.70428
  Beta  occ. eigenvalues --   -0.70164  -0.69886  -0.69550  -0.69320  -0.69097
  Beta  occ. eigenvalues --   -0.68869  -0.68778  -0.68118  -0.66812  -0.66375
  Beta  occ. eigenvalues --   -0.66182  -0.65979  -0.65842  -0.65695  -0.65405
  Beta  occ. eigenvalues --   -0.64288  -0.64072  -0.63944  -0.63701  -0.63600
  Beta  occ. eigenvalues --   -0.63537  -0.63291  -0.62332  -0.62001  -0.61952
  Beta  occ. eigenvalues --   -0.61866  -0.61761  -0.61528  -0.61473  -0.60771
  Beta  occ. eigenvalues --   -0.60582  -0.60478  -0.60403  -0.60294  -0.60182
  Beta  occ. eigenvalues --   -0.60115  -0.60072  -0.60060  -0.59958  -0.59920
  Beta  occ. eigenvalues --   -0.59790  -0.59717  -0.59587  -0.59289  -0.58961
  Beta  occ. eigenvalues --   -0.58524  -0.58012  -0.57629  -0.57557  -0.57474
  Beta  occ. eigenvalues --   -0.57405  -0.57339  -0.57227  -0.57136  -0.56842
  Beta  occ. eigenvalues --   -0.56711  -0.56390  -0.55363  -0.55274  -0.55135
  Beta  occ. eigenvalues --   -0.55001  -0.54913  -0.54851  -0.54809  -0.54436
  Beta  occ. eigenvalues --   -0.54281  -0.54261  -0.54234  -0.54159  -0.53971
  Beta  occ. eigenvalues --   -0.53878  -0.53648  -0.53568  -0.53460  -0.53366
  Beta  occ. eigenvalues --   -0.53259  -0.52996  -0.52811  -0.51853  -0.51124
  Beta  occ. eigenvalues --   -0.51057  -0.50970  -0.50948  -0.50810  -0.50203
  Beta  occ. eigenvalues --   -0.50174  -0.49395  -0.49214  -0.49083  -0.48960
  Beta  occ. eigenvalues --   -0.48908  -0.48847  -0.48720  -0.48679  -0.48587
  Beta  occ. eigenvalues --   -0.48486  -0.48344  -0.48274  -0.48195  -0.48123
  Beta  occ. eigenvalues --   -0.47905  -0.47780  -0.47691  -0.47440  -0.47273
  Beta  occ. eigenvalues --   -0.46946  -0.46936  -0.46334  -0.46095  -0.46023
  Beta  occ. eigenvalues --   -0.45927  -0.45868  -0.45706  -0.45422  -0.43359
  Beta  occ. eigenvalues --   -0.42826  -0.42131  -0.41313  -0.40449  -0.39701
  Beta  occ. eigenvalues --   -0.38762  -0.38569  -0.38519  -0.38482  -0.38425
  Beta  occ. eigenvalues --   -0.38291  -0.38109  -0.37804  -0.37668  -0.37654
  Beta  occ. eigenvalues --   -0.37642  -0.37594  -0.37452  -0.37201  -0.36720
  Beta  occ. eigenvalues --   -0.35886  -0.35839  -0.35819  -0.35760  -0.35621
  Beta  occ. eigenvalues --   -0.35454  -0.35333  -0.35200  -0.34418  -0.33327
  Beta  occ. eigenvalues --   -0.32205  -0.31176  -0.30352  -0.29843
  Beta virt. eigenvalues --   -0.03406  -0.02726  -0.01799  -0.00696   0.00497
  Beta virt. eigenvalues --    0.01698   0.02640   0.04608   0.04924   0.04994
  Beta virt. eigenvalues --    0.05072   0.05139   0.05257   0.05580   0.05643

 Mulliken charges and spin densities:
               1          2
     1  C    0.040454   0.000000
     2  C    0.001537  -0.000000
     3  C    0.119331   0.000000
     4  F   -0.094864   0.000000
     5  C   -0.069613  -0.000000
     6  C    0.105755   0.000000
     7  F   -0.121848  -0.000000
     8  C    0.008973  -0.000000
     9  C    0.000178  -0.000000
    10  N   -0.159433   0.000000
    11  C    0.122438  -0.000000
    12  C   -0.212803   0.000000
    13  S    0.179721  -0.000000
    14  C    0.069539  -0.000000
    15  C    0.004435   0.000000
    16  C    0.107574   0.000000
    17  F   -0.119354   0.000000
    18  C   -0.061525   0.000000
    19  C    0.128816  -0.000000
    20  F   -0.091558  -0.000000
    21  C   -0.009822   0.000000
    22  C   -0.000082   0.000000
    23  N   -0.162140   0.000000
    24  C    0.123363  -0.000000
    25  C   -0.213076  -0.000000
    26  S    0.179180  -0.000000
    27  C    0.069603   0.000000
    28  C   -0.009827  -0.000000
    29  C    0.128741   0.000000
    30  F   -0.091586   0.000000
    31  C   -0.061339  -0.000000
    32  C    0.107710   0.000000
    33  F   -0.118889   0.000000
    34  C    0.004404  -0.000000
    35  C   -0.000501   0.000000
    36  N   -0.162438  -0.000000
    37  C    0.122796  -0.000000
    38  C   -0.213279   0.000000
    39  S    0.181937   0.000000
    40  C    0.069814  -0.000000
    41  C   -0.005359   0.000000
    42  C    0.125145  -0.000000
    43  F   -0.091070  -0.000000
    44  C   -0.061061  -0.000000
    45  C    0.111245   0.000000
    46  F   -0.119248  -0.000000
    47  C   -0.000300  -0.000000
    48  C   -0.000482   0.000000
    49  N   -0.162599  -0.000000
    50  C    0.122752   0.000000
    51  C   -0.213203   0.000000
    52  S    0.181933  -0.000000
    53  C    0.069645  -0.000000
    54  C   -0.000461  -0.000000
    55  C    0.111455   0.000000
    56  F   -0.119207   0.000000
    57  C   -0.061170  -0.000000
    58  C    0.125243  -0.000000
    59  F   -0.091099  -0.000000
    60  C   -0.005438   0.000000
    61  C   -0.000870   0.000000
    62  N   -0.162503  -0.000000
    63  C    0.122589  -0.000000
    64  C   -0.212960   0.000000
    65  S    0.181801  -0.000000
    66  C    0.069317   0.000000
    67  C   -0.005742   0.000000
    68  C    0.125258  -0.000000
    69  F   -0.091500  -0.000000
    70  C   -0.061291  -0.000000
    71  C    0.111907   0.000000
    72  F   -0.119008  -0.000000
    73  C   -0.000856  -0.000000
    74  C   -0.002237  -0.000000
    75  N   -0.162623  -0.000000
    76  C    0.121698  -0.000000
    77  C   -0.211723  -0.000000
    78  S    0.181791   0.000000
    79  C    0.067224   0.000000
    80  C   -0.008068   0.000000
    81  C    0.126563  -0.000000
    82  F   -0.093253   0.000000
    83  C   -0.058426  -0.000000
    84  C    0.116216   0.000000
    85  F   -0.119177   0.000000
    86  C   -0.003888   0.000000
    87  C   -0.023208   0.000000
    88  N   -0.165672   0.000000
    89  C    0.110376   0.000000
    90  C   -0.176284  -0.000000
    91  S    0.175875   0.000000
    92  H    0.014923   0.000000
    93  H    0.016741  -0.000000
    94  H    0.016688  -0.000000
    95  H    0.018557   0.000000
    96  H    0.014804  -0.000000
    97  H    0.009551   0.000000
    98  H    0.018856   0.000000
    99  H    0.009498  -0.000000
   100  H    0.015009  -0.000000
   101  H    0.017611  -0.000000
   102  H    0.014317  -0.000000
   103  H    0.010011  -0.000000
   104  H    0.017512   0.000000
   105  H    0.009852   0.000000
   106  H    0.014236   0.000000
   107  H    0.017528  -0.000000
   108  H    0.013807   0.000000
   109  H    0.009607  -0.000000
   110  H    0.016743   0.000000
   111  H    0.012627  -0.000000
   112  H    0.008015  -0.000000
   113  H    0.013481   0.000000
   114  H    0.039661   0.000000
 Sum of Mulliken charges =  -0.00000  -0.00000

 Dipole moment (field-independent basis, Debye):
    X=             -6.1391    Y=              3.6568    Z=              0.5546  Tot=              7.1672
 Quadrupole moment (field-independent basis, Debye-Ang):
   XX=           -436.9980   YY=           -530.9454   ZZ=           -554.5828
   XY=            -60.1734   XZ=            -21.2070   YZ=              1.4372

 Normal termination of Gaussian 16 at Fri Jul 24 21:37:05 2020.
