 Gaussian 16, Revision A.03,
 Gaussian 16:  EM64L-G16RevA.03 25-Dec-2016

 ---------------------------------------------------------------
 #P uLC-wPBE/cc-pVDZ iop(3/107=0220900000, 3/108=0220900000) opt
 ---------------------------------------------------------------

 -----------
 H4 C8 S2 F2
 -----------
 Symbolic Z-matrix:
 Charge =  0 Multiplicity = 1

 SCF Done:  E(ULC-wPBE) =  -1302.62693752     A.U. after   16 cycles
 SCF Done:  E(ULC-wPBE) =  -1302.64873145     A.U. after   14 cycles
 SCF Done:  E(ULC-wPBE) =  -1302.65031861     A.U. after   13 cycles
 SCF Done:  E(ULC-wPBE) =  -1302.65043184     A.U. after   13 cycles
 SCF Done:  E(ULC-wPBE) =  -1302.65046455     A.U. after   11 cycles
 SCF Done:  E(ULC-wPBE) =  -1302.65047438     A.U. after   10 cycles
 SCF Done:  E(ULC-wPBE) =  -1302.65047575     A.U. after    9 cycles
 SCF Done:  E(ULC-wPBE) =  -1302.65047615     A.U. after    9 cycles
 SCF Done:  E(ULC-wPBE) =  -1302.65047636     A.U. after    8 cycles
 SCF Done:  E(ULC-wPBE) =  -1302.65047653     A.U. after    9 cycles
 Optimization completed.
    -- Stationary point found.

                         Standard orientation:
 ---------------------------------------------------------------------
 Center     Atomic      Atomic             Coordinates (Angstroms)
 Number     Number       Type             X           Y           Z
 ---------------------------------------------------------------------
      1          6           0       -3.167378    0.546504   -0.000209
      2          6           0       -2.956696   -0.808685    0.000155
      3          6           0       -1.567318   -1.102567    0.000284
      4          9           0       -1.096235   -2.368250    0.000659
      5          6           0       -0.726965   -0.008431   -0.000005
      6         16           0       -1.692761    1.446080   -0.000461
      7          6           0        0.726945    0.008423   -0.000008
      8          6           0        1.567328    1.102566    0.000294
      9          9           0        1.096264    2.368256    0.000667
     10          6           0        2.956687    0.808683    0.000193
     11          6           0        3.167348   -0.546502   -0.000254
     12         16           0        1.692761   -1.446074   -0.000456
     13          1           0       -4.122346    1.078282   -0.000483
     14          1           0       -3.739436   -1.572336    0.000518
     15          1           0        3.739489    1.572270    0.000326
     16          1           0        4.122314   -1.078304   -0.000336
 ---------------------------------------------------------------------

 The electronic state is 1-A.
 Alpha  occ. eigenvalues --  -88.23365 -88.23365 -24.41986 -24.41986 -10.10891
 Alpha  occ. eigenvalues --  -10.10890 -10.07100 -10.07087 -10.06177 -10.06177
 Alpha  occ. eigenvalues --  -10.04004 -10.04003  -7.83736  -7.83736  -5.85743
 Alpha  occ. eigenvalues --   -5.85742  -5.85253  -5.85253  -5.84823  -5.84823
 Alpha  occ. eigenvalues --   -1.25553  -1.25535  -0.95946  -0.94161  -0.83641
 Alpha  occ. eigenvalues --   -0.80580  -0.79833  -0.77053  -0.67368  -0.66367
 Alpha  occ. eigenvalues --   -0.63688  -0.63500  -0.60903  -0.55684  -0.53759
 Alpha  occ. eigenvalues --   -0.52879  -0.52601  -0.52048  -0.51654  -0.50949
 Alpha  occ. eigenvalues --   -0.46385  -0.46069  -0.44570  -0.44361  -0.43958
 Alpha  occ. eigenvalues --   -0.42434  -0.40302  -0.36301  -0.32500  -0.32376
 Alpha  occ. eigenvalues --   -0.27537
 Alpha virt. eigenvalues --    0.00805   0.06486   0.08577   0.09039   0.11590
 Alpha virt. eigenvalues --    0.13166   0.13432   0.14677   0.15763   0.18090
 Alpha virt. eigenvalues --    0.19283   0.20348   0.21587   0.25896   0.28437

  Beta  occ. eigenvalues --  -88.23365 -88.23365 -24.41986 -24.41986 -10.10891
  Beta  occ. eigenvalues --  -10.10890 -10.07100 -10.07087 -10.06177 -10.06177
  Beta  occ. eigenvalues --  -10.04004 -10.04003  -7.83736  -7.83736  -5.85743
  Beta  occ. eigenvalues --   -5.85742  -5.85253  -5.85253  -5.84823  -5.84823
  Beta  occ. eigenvalues --   -1.25553  -1.25535  -0.95946  -0.94161  -0.83641
  Beta  occ. eigenvalues --   -0.80580  -0.79833  -0.77053  -0.67368  -0.66367
  Beta  occ. eigenvalues --   -0.63688  -0.63500  -0.60903  -0.55684  -0.53759
  Beta  occ. eigenvalues --   -0.52879  -0.52601  -0.52048  -0.51654  -0.50949
  Beta  occ. eigenvalues --   -0.46385  -0.46069  -0.44570  -0.44361  -0.43958
  Beta  occ. eigenvalues --   -0.42434  -0.40302  -0.36301  -0.32500  -0.32376
  Beta  occ. eigenvalues --   -0.27537
  Beta virt. eigenvalues --    0.00805   0.06486   0.08577   0.09039   0.11590
  Beta virt. eigenvalues --    0.13166   0.13432   0.14677   0.15763   0.18090
  Beta virt. eigenvalues --    0.19283   0.20348   0.21587   0.25896   0.28437

 Mulliken charges and spin densities:
               1          2
     1  C   -0.127494  -0.000000
     2  C    0.068419   0.000000
     3  C    0.095999   0.000000
     4  F   -0.123695   0.000000
     5  C   -0.128489   0.000000
     6  S    0.180155   0.000000
     7  C   -0.128513  -0.000000
     8  C    0.096012   0.000000
     9  F   -0.123696  -0.000000
    10  C    0.068420   0.000000
    11  C   -0.127500  -0.000000
    12  S    0.180160   0.000000
    13  H    0.031564  -0.000000
    14  H    0.003546  -0.000000
    15  H    0.003547   0.000000
    16  H    0.031566  -0.000000
 Sum of Mulliken charges =  -0.00000   0.00000

 Dipole moment (field-independent basis, Debye):
    X=              0.0001    Y=             -0.0001    Z=             -0.0004  Tot=              0.0004
 Quadrupole moment (field-independent basis, Debye-Ang):
   XX=            -62.5582   YY=            -80.7922   ZZ=            -83.9043
   XY=             -1.3658   XZ=              0.0000   YZ=             -0.0005

 Normal termination of Gaussian 16 at Fri Jul 24 20:05:45 2020.
