 Gaussian 16, Revision A.03,
 Gaussian 16:  EM64L-G16RevA.03 25-Dec-2016

 ---------------------------------------------------------------
 #P uLC-wPBE/cc-pVDZ iop(3/107=0097700000, 3/108=0097700000) opt
 ---------------------------------------------------------------

 --------------
 H8 C9 S1 N2 O1
 --------------
 Symbolic Z-matrix:
 Charge =  0 Multiplicity = 1

 SCF Done:  E(ULC-wPBE) =  -929.995480795     A.U. after   16 cycles
 SCF Done:  E(ULC-wPBE) =  -930.022494137     A.U. after   14 cycles
 SCF Done:  E(ULC-wPBE) =  -930.028384901     A.U. after   14 cycles
 SCF Done:  E(ULC-wPBE) =  -930.030477854     A.U. after   14 cycles
 SCF Done:  E(ULC-wPBE) =  -930.031813000     A.U. after   16 cycles
 SCF Done:  E(ULC-wPBE) =  -930.032150187     A.U. after   13 cycles
 SCF Done:  E(ULC-wPBE) =  -930.032241696     A.U. after   12 cycles
 SCF Done:  E(ULC-wPBE) =  -930.032261780     A.U. after   12 cycles
 SCF Done:  E(ULC-wPBE) =  -930.032280580     A.U. after   10 cycles
 SCF Done:  E(ULC-wPBE) =  -930.032283001     A.U. after   11 cycles
 SCF Done:  E(ULC-wPBE) =  -930.032283498     A.U. after    9 cycles
 SCF Done:  E(ULC-wPBE) =  -930.032283567     A.U. after    7 cycles
 Optimization completed.
    -- Stationary point found.

                         Standard orientation:
 ---------------------------------------------------------------------
 Center     Atomic      Atomic             Coordinates (Angstroms)
 Number     Number       Type             X           Y           Z
 ---------------------------------------------------------------------
      1          6           0        2.817636   -1.626359   -0.000064
      2          6           0        1.621932   -2.355181    0.000082
      3          7           0        0.416176   -1.769762    0.000099
      4          6           0        0.330908   -0.423661    0.000064
      5          6           0        1.495170    0.405431    0.000040
      6          8           0        1.312509    1.748791    0.000135
      7          6           0        2.473324    2.576728   -0.000074
      8          6           0        2.752613   -0.227584   -0.000106
      9          6           0       -1.043296    0.100029    0.000020
     10          7           0       -1.437456    1.356686    0.000093
     11          6           0       -2.808352    1.433237    0.000010
     12          6           0       -3.483711    0.229791   -0.000056
     13         16           0       -2.363441   -1.091261   -0.000075
     14          1           0        3.789248   -2.140118   -0.000130
     15          1           0        1.627441   -3.456835    0.000186
     16          1           0        3.096878    2.412343    0.906027
     17          1           0        3.096579    2.412287   -0.906367
     18          1           0        2.095819    3.614337   -0.000037
     19          1           0        3.675530    0.365811   -0.000327
     20          1           0       -3.289138    2.420661    0.000053
     21          1           0       -4.565751    0.058310   -0.000123
 ---------------------------------------------------------------------

 The electronic state is 1-A.
 Alpha  occ. eigenvalues --  -88.14972 -18.86637 -14.05692 -14.04660 -10.02839
 Alpha  occ. eigenvalues --  -10.01689 -10.00704 -10.00193  -9.98535  -9.97725
 Alpha  occ. eigenvalues --   -9.97620  -9.97610  -9.97128  -7.75187  -5.77231
 Alpha  occ. eigenvalues --   -5.76818  -5.76512  -1.04776  -0.93075  -0.91303
 Alpha  occ. eigenvalues --   -0.78843  -0.77179  -0.76999  -0.71770  -0.69505
 Alpha  occ. eigenvalues --   -0.63773  -0.61369  -0.57476  -0.56227  -0.53310
 Alpha  occ. eigenvalues --   -0.50892  -0.50037  -0.48003  -0.47724  -0.44279
 Alpha  occ. eigenvalues --   -0.43951  -0.43176  -0.42413  -0.40105  -0.39962
 Alpha  occ. eigenvalues --   -0.39654  -0.36657  -0.35701  -0.35102  -0.31928
 Alpha  occ. eigenvalues --   -0.29576  -0.27614  -0.27486  -0.26860  -0.23964
 Alpha virt. eigenvalues --   -0.03480   0.00658   0.03596   0.06532   0.07978
 Alpha virt. eigenvalues --    0.08022   0.10223   0.11408   0.12380   0.13708
 Alpha virt. eigenvalues --    0.14042   0.14885   0.15123   0.16420   0.16596

  Beta  occ. eigenvalues --  -88.14972 -18.86637 -14.05692 -14.04660 -10.02839
  Beta  occ. eigenvalues --  -10.01689 -10.00704 -10.00193  -9.98535  -9.97725
  Beta  occ. eigenvalues --   -9.97620  -9.97610  -9.97128  -7.75187  -5.77231
  Beta  occ. eigenvalues --   -5.76818  -5.76512  -1.04776  -0.93075  -0.91303
  Beta  occ. eigenvalues --   -0.78843  -0.77179  -0.76999  -0.71770  -0.69505
  Beta  occ. eigenvalues --   -0.63773  -0.61369  -0.57476  -0.56227  -0.53310
  Beta  occ. eigenvalues --   -0.50892  -0.50037  -0.48003  -0.47724  -0.44279
  Beta  occ. eigenvalues --   -0.43951  -0.43176  -0.42413  -0.40105  -0.39962
  Beta  occ. eigenvalues --   -0.39654  -0.36657  -0.35701  -0.35102  -0.31928
  Beta  occ. eigenvalues --   -0.29576  -0.27614  -0.27486  -0.26860  -0.23964
  Beta virt. eigenvalues --   -0.03480   0.00658   0.03596   0.06532   0.07978
  Beta virt. eigenvalues --    0.08022   0.10223   0.11408   0.12380   0.13708
  Beta virt. eigenvalues --    0.14042   0.14885   0.15123   0.16420   0.16596

 Mulliken charges and spin densities:
               1          2
     1  C   -0.018850   0.000000
     2  C    0.084556   0.000000
     3  N   -0.209794  -0.000000
     4  C    0.102939   0.000000
     5  C    0.115710  -0.000000
     6  O   -0.197298  -0.000000
     7  C    0.057132  -0.000000
     8  C    0.021660  -0.000000
     9  C   -0.031482  -0.000000
    10  N   -0.172794   0.000000
    11  C    0.111425   0.000000
    12  C   -0.161849  -0.000000
    13  S    0.167801  -0.000000
    14  H   -0.015210   0.000000
    15  H   -0.001855   0.000000
    16  H    0.045328   0.000000
    17  H    0.045330  -0.000000
    18  H    0.057368  -0.000000
    19  H   -0.011511   0.000000
    20  H   -0.007188  -0.000000
    21  H    0.018581  -0.000000
 Sum of Mulliken charges =  -0.00000   0.00000

 Dipole moment (field-independent basis, Debye):
    X=              2.5155    Y=              1.0888    Z=             -0.0005  Tot=              2.7410
 Quadrupole moment (field-independent basis, Debye-Ang):
   XX=            -62.7096   YY=            -76.3612   ZZ=            -84.3529
   XY=              1.5618   XZ=             -0.0006   YZ=             -0.0007

 Normal termination of Gaussian 16 at Fri Jul 24 16:06:09 2020.
