 Gaussian 16, Revision A.03,
 Gaussian 16:  EM64L-G16RevA.03 25-Dec-2016

 ---------------------------------------------------------------
 #P uLC-wPBE/cc-pVDZ iop(3/107=0245800000, 3/108=0245800000) opt
 ---------------------------------------------------------------

 -------------
 H27 C50 S5 F5
 -------------
 Symbolic Z-matrix:
 Charge =  0 Multiplicity = 1

 SCF Done:  E(ULC-wPBE) =  -4409.09981258     A.U. after   17 cycles
 SCF Done:  E(ULC-wPBE) =  -4409.17701944     A.U. after   15 cycles
 SCF Done:  E(ULC-wPBE) =  -4409.23272900     A.U. after   16 cycles
 SCF Done:  E(ULC-wPBE) =  -4409.24746668     A.U. after   13 cycles
 SCF Done:  E(ULC-wPBE) =  -4409.25207442     A.U. after   14 cycles
 SCF Done:  E(ULC-wPBE) =  -4409.25381709     A.U. after   16 cycles
 SCF Done:  E(ULC-wPBE) =  -4409.25567137     A.U. after   16 cycles
 SCF Done:  E(ULC-wPBE) =  -4409.25659938     A.U. after   14 cycles
 SCF Done:  E(ULC-wPBE) =  -4409.25700311     A.U. after   15 cycles
 SCF Done:  E(ULC-wPBE) =  -4409.25709623     A.U. after   12 cycles
 SCF Done:  E(ULC-wPBE) =  -4409.25723475     A.U. after   11 cycles
 SCF Done:  E(ULC-wPBE) =  -4409.25723679     A.U. after   11 cycles
 SCF Done:  E(ULC-wPBE) =  -4409.25723729     A.U. after    8 cycles
 SCF Done:  E(ULC-wPBE) =  -4409.25723773     A.U. after    7 cycles
 SCF Done:  E(ULC-wPBE) =  -4409.25723800     A.U. after    7 cycles
 SCF Done:  E(ULC-wPBE) =  -4409.25723821     A.U. after    8 cycles
 SCF Done:  E(ULC-wPBE) =  -4409.25723825     A.U. after    7 cycles
 SCF Done:  E(ULC-wPBE) =  -4409.25723819     A.U. after    6 cycles
 SCF Done:  E(ULC-wPBE) =  -4409.25723821     A.U. after    6 cycles
 SCF Done:  E(ULC-wPBE) =  -4409.25723825     A.U. after    6 cycles
 Optimization completed.
    -- Stationary point found.

                         Standard orientation:
 ---------------------------------------------------------------------
 Center     Atomic      Atomic             Coordinates (Angstroms)
 Number     Number       Type             X           Y           Z
 ---------------------------------------------------------------------
      1          6           0      -19.257681    2.136096    0.337280
      2          6           0      -19.028611    0.758352    0.393137
      3          6           0      -17.735229    0.258202    0.253385
      4          6           0      -16.631588    1.106879    0.043079
      5          6           0      -16.904828    2.481930    0.003201
      6          9           0      -15.880776    3.350119   -0.178048
      7          6           0      -18.184739    3.005955    0.144245
      8          6           0      -15.279487    0.547973   -0.143321
      9          6           0      -14.964223   -0.728769   -0.565292
     10          6           0      -13.568903   -0.989078   -0.588327
     11          6           0      -12.810428    0.089426   -0.183889
     12         16           0      -13.828513    1.434799    0.223120
     13          6           0      -11.343088    0.190196   -0.093196
     14          6           0      -10.669249    1.412451   -0.265966
     15          6           0       -9.282250    1.480769   -0.187552
     16          6           0       -8.490670    0.345216    0.068571
     17          6           0       -9.190476   -0.860177    0.224300
     18          9           0       -8.494703   -1.997287    0.463978
     19          6           0      -10.573026   -0.955456    0.156567
     20          6           0       -7.026269    0.454315    0.182916
     21          6           0       -6.301757    1.596880    0.462884
     22          6           0       -4.897082    1.394362    0.448596
     23          6           0       -4.540525    0.093984    0.158320
     24         16           0       -5.950843   -0.885017   -0.095638
     25          6           0       -3.185783   -0.479087    0.071201
     26          6           0       -2.095642    0.317372   -0.321903
     27          6           0       -0.813671   -0.216822   -0.395562
     28          6           0       -0.543110   -1.564075   -0.089390
     29          6           0       -1.652165   -2.336378    0.289891
     30          9           0       -1.477926   -3.640791    0.605372
     31          6           0       -2.940080   -1.826113    0.376616
     32          6           0        0.817298   -2.122214   -0.155742
     33          6           0        1.227815   -3.429747   -0.320305
     34          6           0        2.641159   -3.574018   -0.356205
     35          6           0        3.318813   -2.382162   -0.213084
     36         16           0        2.198116   -1.068900   -0.019375
     37          6           0        4.774161   -2.154311   -0.201061
     38          6           0        5.652727   -3.157250    0.247415
     39          6           0        7.028024   -2.951866    0.249997
     40          6           0        7.606079   -1.745386   -0.189897
     41          6           0        6.703848   -0.759336   -0.613485
     42          9           0        7.184859    0.433266   -1.037655
     43          6           0        5.327827   -0.939767   -0.631445
     44          6           0        9.068346   -1.570381   -0.208353
     45          6           0       10.020357   -2.571444   -0.222156
     46          6           0       11.353292   -2.085702   -0.180401
     47          6           0       11.426982   -0.709176   -0.135297
     48         16           0        9.838229   -0.010938   -0.147759
     49          6           0       12.632161    0.138452   -0.098049
     50          6           0       12.646750    1.435810   -0.639585
     51          6           0       13.798053    2.215674   -0.593966
     52          6           0       14.997926    1.746384   -0.027798
     53          6           0       14.949620    0.452076    0.509933
     54          9           0       16.059155   -0.058177    1.095316
     55          6           0       13.811390   -0.341442    0.491078
     56          6           0       16.214393    2.578954   -0.033320
     57          6           0       16.494360    3.624564   -0.891216
     58          6           0       17.729198    4.273847   -0.608813
     59          6           0       18.376984    3.716482    0.464672
     60         16           0       17.499347    2.393436    1.127911
     61          1           0      -20.271288    2.537553    0.451872
     62          1           0      -19.862569    0.066366    0.557411
     63          1           0      -17.562134   -0.821558    0.324862
     64          1           0      -18.315113    4.092601    0.098220
     65          1           0      -15.719198   -1.456499   -0.877962
     66          1           0      -13.132619   -1.933270   -0.928765
     67          1           0      -11.239351    2.321140   -0.492292
     68          1           0       -8.785942    2.443107   -0.354903
     69          1           0      -11.034912   -1.933999    0.324552
     70          1           0       -6.770162    2.556807    0.700292
     71          1           0       -4.168087    2.176133    0.683015
     72          1           0       -2.259948    1.363895   -0.601025
     73          1           0        0.012508    0.425197   -0.724991
     74          1           0       -3.740706   -2.497082    0.708044
     75          1           0        0.527733   -4.260519   -0.429616
     76          1           0        3.147886   -4.531209   -0.513884
     77          1           0        5.248728   -4.101281    0.629215
     78          1           0        7.684230   -3.741870    0.631862
     79          1           0        4.702873   -0.121131   -1.005814
     80          1           0        9.767718   -3.634076   -0.287722
     81          1           0       12.236515   -2.730760   -0.219265
     82          1           0       11.742936    1.839868   -1.110748
     83          1           0       13.771130    3.231168   -1.004519
     84          1           0       13.859737   -1.329947    0.959748
     85          1           0       15.836842    3.908298   -1.718738
     86          1           0       18.124633    5.116326   -1.184364
     87          1           0       19.339661    4.001821    0.896460
 ---------------------------------------------------------------------

 The electronic state is 1-A.
 Alpha  occ. eigenvalues --  -88.24306 -88.24241 -88.24216 -88.24087 -88.23559
 Alpha  occ. eigenvalues --  -24.43263 -24.43230 -24.43171 -24.43065 -24.42829
 Alpha  occ. eigenvalues --  -10.13010 -10.12993 -10.12979 -10.12876 -10.12599
 Alpha  occ. eigenvalues --  -10.08214 -10.08207 -10.08167 -10.08088 -10.07980
 Alpha  occ. eigenvalues --  -10.07801 -10.07769 -10.07642 -10.07473 -10.07352
 Alpha  occ. eigenvalues --  -10.07328 -10.07276 -10.07192 -10.07181 -10.07164
 Alpha  occ. eigenvalues --  -10.07139 -10.06990 -10.06769 -10.06258 -10.05882
 Alpha  occ. eigenvalues --  -10.05878 -10.05864 -10.05771 -10.05718 -10.05553
 Alpha  occ. eigenvalues --  -10.05530 -10.05485 -10.05465 -10.05448 -10.05271
 Alpha  occ. eigenvalues --  -10.05246 -10.05214 -10.05200 -10.05148 -10.04940
 Alpha  occ. eigenvalues --  -10.04923 -10.04916 -10.04869 -10.04854 -10.04837
 Alpha  occ. eigenvalues --  -10.04824 -10.04688 -10.04676 -10.04252 -10.04169
 Alpha  occ. eigenvalues --   -7.84775  -7.84676  -7.84651  -7.84521  -7.83999
 Alpha  occ. eigenvalues --   -5.86716  -5.86622  -5.86598  -5.86468  -5.86237
 Alpha  occ. eigenvalues --   -5.86128  -5.86104  -5.85974  -5.85939  -5.85839
 Alpha  occ. eigenvalues --   -5.85751  -5.85725  -5.85595  -5.85441  -5.85093
 Alpha  occ. eigenvalues --   -1.27091  -1.27068  -1.26987  -1.26919  -1.26666
 Alpha  occ. eigenvalues --   -0.97213  -0.97053  -0.96820  -0.96643  -0.95748
 Alpha  occ. eigenvalues --   -0.94880  -0.94475  -0.93938  -0.93501  -0.93244
 Alpha  occ. eigenvalues --   -0.88415  -0.87688  -0.86697  -0.85666  -0.84846
 Alpha  occ. eigenvalues --   -0.83323  -0.83294  -0.83182  -0.82932  -0.82864
 Alpha  occ. eigenvalues --   -0.81910  -0.81692  -0.81506  -0.81323  -0.81139
 Alpha  occ. eigenvalues --   -0.80778  -0.80429  -0.79032  -0.77607  -0.76502
 Alpha  occ. eigenvalues --   -0.73123  -0.71969  -0.71481  -0.71226  -0.70518
 Alpha  occ. eigenvalues --   -0.70426  -0.69980  -0.69626  -0.69123  -0.68683
 Alpha  occ. eigenvalues --   -0.65302  -0.65092  -0.64921  -0.64557  -0.64237
 Alpha  occ. eigenvalues --   -0.64085  -0.63779  -0.63326  -0.63128  -0.62620
 Alpha  occ. eigenvalues --   -0.61667  -0.61220  -0.60982  -0.60553  -0.60057
 Alpha  occ. eigenvalues --   -0.59275  -0.58543  -0.58367  -0.58251  -0.57965
 Alpha  occ. eigenvalues --   -0.57309  -0.57063  -0.56771  -0.56577  -0.56479
 Alpha  occ. eigenvalues --   -0.55751  -0.55182  -0.54614  -0.54601  -0.54499
 Alpha  occ. eigenvalues --   -0.54455  -0.54251  -0.54057  -0.53213  -0.52618
 Alpha  occ. eigenvalues --   -0.52259  -0.51991  -0.51927  -0.51662  -0.51307
 Alpha  occ. eigenvalues --   -0.49869  -0.49562  -0.49334  -0.49274  -0.49108
 Alpha  occ. eigenvalues --   -0.48936  -0.48812  -0.48572  -0.48397  -0.48003
 Alpha  occ. eigenvalues --   -0.47967  -0.47775  -0.47765  -0.47658  -0.47525
 Alpha  occ. eigenvalues --   -0.47284  -0.46965  -0.46895  -0.46784  -0.46646
 Alpha  occ. eigenvalues --   -0.46082  -0.46037  -0.45896  -0.45540  -0.45100
 Alpha  occ. eigenvalues --   -0.44899  -0.44667  -0.44472  -0.44226  -0.43940
 Alpha  occ. eigenvalues --   -0.43897  -0.43771  -0.43287  -0.42940  -0.42855
 Alpha  occ. eigenvalues --   -0.42780  -0.41654  -0.41293  -0.41165  -0.41065
 Alpha  occ. eigenvalues --   -0.40891  -0.39670  -0.38853  -0.37655  -0.36378
 Alpha  occ. eigenvalues --   -0.35276  -0.33957  -0.33931  -0.33853  -0.33707
 Alpha  occ. eigenvalues --   -0.33673  -0.33646  -0.33578  -0.33546  -0.33402
 Alpha  occ. eigenvalues --   -0.32937  -0.31893  -0.30472  -0.28867  -0.27432
 Alpha  occ. eigenvalues --   -0.26469
 Alpha virt. eigenvalues --   -0.02304  -0.01182   0.00301   0.01901   0.03364
 Alpha virt. eigenvalues --    0.04548   0.04753   0.04892   0.04980   0.05106
 Alpha virt. eigenvalues --    0.05572   0.06901   0.08194   0.09182   0.10047

  Beta  occ. eigenvalues --  -88.24306 -88.24241 -88.24216 -88.24087 -88.23559
  Beta  occ. eigenvalues --  -24.43263 -24.43230 -24.43171 -24.43065 -24.42829
  Beta  occ. eigenvalues --  -10.13010 -10.12993 -10.12979 -10.12876 -10.12599
  Beta  occ. eigenvalues --  -10.08214 -10.08207 -10.08167 -10.08088 -10.07980
  Beta  occ. eigenvalues --  -10.07801 -10.07769 -10.07642 -10.07473 -10.07352
  Beta  occ. eigenvalues --  -10.07328 -10.07276 -10.07192 -10.07181 -10.07164
  Beta  occ. eigenvalues --  -10.07139 -10.06990 -10.06769 -10.06258 -10.05882
  Beta  occ. eigenvalues --  -10.05878 -10.05864 -10.05771 -10.05718 -10.05553
  Beta  occ. eigenvalues --  -10.05530 -10.05485 -10.05465 -10.05448 -10.05271
  Beta  occ. eigenvalues --  -10.05246 -10.05214 -10.05200 -10.05148 -10.04940
  Beta  occ. eigenvalues --  -10.04923 -10.04916 -10.04869 -10.04854 -10.04837
  Beta  occ. eigenvalues --  -10.04824 -10.04688 -10.04676 -10.04252 -10.04169
  Beta  occ. eigenvalues --   -7.84775  -7.84676  -7.84651  -7.84521  -7.83999
  Beta  occ. eigenvalues --   -5.86716  -5.86622  -5.86598  -5.86468  -5.86237
  Beta  occ. eigenvalues --   -5.86128  -5.86104  -5.85974  -5.85939  -5.85839
  Beta  occ. eigenvalues --   -5.85751  -5.85725  -5.85595  -5.85441  -5.85093
  Beta  occ. eigenvalues --   -1.27091  -1.27068  -1.26987  -1.26919  -1.26666
  Beta  occ. eigenvalues --   -0.97213  -0.97053  -0.96820  -0.96643  -0.95748
  Beta  occ. eigenvalues --   -0.94880  -0.94475  -0.93938  -0.93501  -0.93244
  Beta  occ. eigenvalues --   -0.88415  -0.87688  -0.86697  -0.85666  -0.84846
  Beta  occ. eigenvalues --   -0.83323  -0.83294  -0.83182  -0.82932  -0.82864
  Beta  occ. eigenvalues --   -0.81910  -0.81692  -0.81506  -0.81323  -0.81139
  Beta  occ. eigenvalues --   -0.80778  -0.80429  -0.79032  -0.77607  -0.76502
  Beta  occ. eigenvalues --   -0.73123  -0.71969  -0.71481  -0.71226  -0.70518
  Beta  occ. eigenvalues --   -0.70426  -0.69980  -0.69626  -0.69123  -0.68683
  Beta  occ. eigenvalues --   -0.65302  -0.65092  -0.64921  -0.64557  -0.64237
  Beta  occ. eigenvalues --   -0.64085  -0.63779  -0.63326  -0.63128  -0.62620
  Beta  occ. eigenvalues --   -0.61667  -0.61220  -0.60982  -0.60553  -0.60057
  Beta  occ. eigenvalues --   -0.59275  -0.58543  -0.58367  -0.58251  -0.57965
  Beta  occ. eigenvalues --   -0.57309  -0.57063  -0.56771  -0.56577  -0.56479
  Beta  occ. eigenvalues --   -0.55751  -0.55182  -0.54614  -0.54601  -0.54499
  Beta  occ. eigenvalues --   -0.54455  -0.54251  -0.54057  -0.53213  -0.52618
  Beta  occ. eigenvalues --   -0.52259  -0.51991  -0.51927  -0.51662  -0.51307
  Beta  occ. eigenvalues --   -0.49869  -0.49562  -0.49334  -0.49274  -0.49108
  Beta  occ. eigenvalues --   -0.48936  -0.48812  -0.48572  -0.48397  -0.48003
  Beta  occ. eigenvalues --   -0.47967  -0.47775  -0.47765  -0.47658  -0.47525
  Beta  occ. eigenvalues --   -0.47284  -0.46965  -0.46895  -0.46784  -0.46646
  Beta  occ. eigenvalues --   -0.46082  -0.46037  -0.45896  -0.45540  -0.45100
  Beta  occ. eigenvalues --   -0.44899  -0.44667  -0.44472  -0.44226  -0.43940
  Beta  occ. eigenvalues --   -0.43897  -0.43771  -0.43287  -0.42940  -0.42855
  Beta  occ. eigenvalues --   -0.42780  -0.41654  -0.41293  -0.41165  -0.41065
  Beta  occ. eigenvalues --   -0.40891  -0.39670  -0.38853  -0.37655  -0.36378
  Beta  occ. eigenvalues --   -0.35276  -0.33957  -0.33931  -0.33853  -0.33707
  Beta  occ. eigenvalues --   -0.33673  -0.33646  -0.33578  -0.33546  -0.33402
  Beta  occ. eigenvalues --   -0.32937  -0.31893  -0.30472  -0.28867  -0.27432
  Beta  occ. eigenvalues --   -0.26469
  Beta virt. eigenvalues --   -0.02304  -0.01182   0.00301   0.01901   0.03364
  Beta virt. eigenvalues --    0.04548   0.04753   0.04892   0.04980   0.05106
  Beta virt. eigenvalues --    0.05572   0.06901   0.08194   0.09182   0.10047

 Mulliken charges and spin densities:
               1          2
     1  C    0.028995   0.000000
     2  C    0.032687   0.000000
     3  C   -0.009279   0.000000
     4  C    0.019292  -0.000000
     5  C    0.077607   0.000000
     6  F   -0.125511   0.000000
     7  C    0.023929  -0.000000
     8  C   -0.137128   0.000000
     9  C    0.036048  -0.000000
    10  C    0.033451   0.000000
    11  C   -0.153313  -0.000000
    12  S    0.175946  -0.000000
    13  C    0.076927   0.000000
    14  C    0.012638   0.000000
    15  C   -0.002049  -0.000000
    16  C    0.033556   0.000000
    17  C    0.085146  -0.000000
    18  F   -0.124102  -0.000000
    19  C    0.008502   0.000000
    20  C   -0.138530   0.000000
    21  C    0.031844  -0.000000
    22  C    0.036189   0.000000
    23  C   -0.152450   0.000000
    24  S    0.175279   0.000000
    25  C    0.075221  -0.000000
    26  C    0.010824   0.000000
    27  C    0.001727  -0.000000
    28  C    0.043183  -0.000000
    29  C    0.076387   0.000000
    30  F   -0.125177   0.000000
    31  C    0.010052   0.000000
    32  C   -0.140168   0.000000
    33  C    0.034578  -0.000000
    34  C    0.038257  -0.000000
    35  C   -0.147658   0.000000
    36  S    0.152179  -0.000000
    37  C    0.077353   0.000000
    38  C    0.012057   0.000000
    39  C   -0.000383  -0.000000
    40  C    0.034896   0.000000
    41  C    0.081496  -0.000000
    42  F   -0.123387  -0.000000
    43  C    0.010478  -0.000000
    44  C   -0.139389   0.000000
    45  C    0.031690  -0.000000
    46  C    0.036089   0.000000
    47  C   -0.151834  -0.000000
    48  S    0.175006   0.000000
    49  C    0.072933   0.000000
    50  C    0.011267  -0.000000
    51  C    0.001124  -0.000000
    52  C    0.035383   0.000000
    53  C    0.088839  -0.000000
    54  F   -0.124440  -0.000000
    55  C    0.007163   0.000000
    56  C   -0.144960  -0.000000
    57  C    0.005410  -0.000000
    58  C    0.063663   0.000000
    59  C   -0.131728  -0.000000
    60  S    0.169403  -0.000000
    61  H   -0.003409   0.000000
    62  H   -0.008001   0.000000
    63  H   -0.009670  -0.000000
    64  H    0.005236  -0.000000
    65  H   -0.009038   0.000000
    66  H   -0.011122  -0.000000
    67  H   -0.008376   0.000000
    68  H   -0.009310  -0.000000
    69  H   -0.004631   0.000000
    70  H   -0.008906   0.000000
    71  H   -0.011353   0.000000
    72  H   -0.018125  -0.000000
    73  H   -0.001074   0.000000
    74  H    0.004578  -0.000000
    75  H   -0.007228  -0.000000
    76  H   -0.010520   0.000000
    77  H   -0.017277   0.000000
    78  H   -0.009281   0.000000
    79  H    0.001577  -0.000000
    80  H   -0.009814   0.000000
    81  H   -0.011420   0.000000
    82  H   -0.009311   0.000000
    83  H   -0.009327  -0.000000
    84  H   -0.005595  -0.000000
    85  H   -0.008397   0.000000
    86  H   -0.009031   0.000000
    87  H    0.025617  -0.000000
 Sum of Mulliken charges =  -0.00000  -0.00000

 Dipole moment (field-independent basis, Debye):
    X=             -4.3038    Y=              0.2409    Z=             -0.8403  Tot=              4.3917
 Quadrupole moment (field-independent basis, Debye-Ang):
   XX=           -291.2034   YY=           -339.7488   ZZ=           -384.1408
   XY=              2.7807   XZ=             -7.5259   YZ=             -3.7484

 Normal termination of Gaussian 16 at Sat Jul 25 11:02:41 2020.
