 Gaussian 16, Revision A.03,
 Gaussian 16:  EM64L-G16RevA.03 25-Dec-2016

 ---------------------------------------------------------------
 #P uLC-wPBE/cc-pVDZ iop(3/107=0466900000, 3/108=0466900000) opt
 ---------------------------------------------------------------

 -----------------
 H47 C55 S5 N5 O10
 -----------------
 Symbolic Z-matrix:
 Charge =  0 Multiplicity = 1

 SCF Done:  E(ULC-wPBE) =  -5138.21169055     A.U. after   16 cycles
 SCF Done:  E(ULC-wPBE) =  -5138.30879568     A.U. after   14 cycles
 SCF Done:  E(ULC-wPBE) =  -5138.40784046     A.U. after   14 cycles
 SCF Done:  E(ULC-wPBE) =  -5138.43717278     A.U. after   15 cycles
 SCF Done:  E(ULC-wPBE) =  -5138.44654762     A.U. after   16 cycles
 SCF Done:  E(ULC-wPBE) =  -5138.45153309     A.U. after   16 cycles
 SCF Done:  E(ULC-wPBE) =  -5138.45335597     A.U. after   16 cycles
 SCF Done:  E(ULC-wPBE) =  -5138.45608539     A.U. after   13 cycles
 SCF Done:  E(ULC-wPBE) =  -5138.45652976     A.U. after   14 cycles
 SCF Done:  E(ULC-wPBE) =  -5138.45833990     A.U. after   13 cycles
 SCF Done:  E(ULC-wPBE) =  -5138.46105571     A.U. after    7 cycles
 SCF Done:  E(ULC-wPBE) =  -5138.46105610     A.U. after    7 cycles
 SCF Done:  E(ULC-wPBE) =  -5138.46105644     A.U. after    7 cycles
 SCF Done:  E(ULC-wPBE) =  -5138.46105668     A.U. after    6 cycles
 SCF Done:  E(ULC-wPBE) =  -5138.46105678     A.U. after    6 cycles
 SCF Done:  E(ULC-wPBE) =  -5138.46105681     A.U. after    6 cycles
 SCF Done:  E(ULC-wPBE) =  -5138.46105684     A.U. after    6 cycles
 SCF Done:  E(ULC-wPBE) =  -5138.46105683     A.U. after    5 cycles
 SCF Done:  E(ULC-wPBE) =  -5138.46105683     A.U. after    5 cycles
 SCF Done:  E(ULC-wPBE) =  -5138.46105684     A.U. after    6 cycles
 Optimization completed.
    -- Stationary point found.

                         Standard orientation:
 ---------------------------------------------------------------------
 Center     Atomic      Atomic             Coordinates (Angstroms)
 Number     Number       Type             X           Y           Z
 ---------------------------------------------------------------------
      1          6           0      -17.667597   -4.127215   -0.803210
      2          6           0      -16.461451   -4.072969   -1.469653
      3          7           0      -15.589286   -3.087337   -1.295061
      4          6           0      -15.871696   -2.113004   -0.443525
      5          6           0      -17.046784   -2.120373    0.330976
      6          8           0      -17.178837   -1.150911    1.252930
      7          6           0      -18.374306   -1.089401    1.980776
      8          6           0      -17.964033   -3.135853    0.120930
      9          6           0      -14.862619   -1.053164   -0.303242
     10          6           0      -15.010554    0.307176   -0.263220
     11          8           0      -16.223873    0.885309   -0.363539
     12          6           0      -16.271664    2.285540   -0.316329
     13          6           0      -13.767512    0.995858   -0.172466
     14          6           0      -12.699110    0.147502   -0.167744
     15         16           0      -13.199340   -1.484261   -0.275346
     16          6           0      -11.279095    0.511091   -0.089846
     17          6           0      -10.299303   -0.224623   -0.739060
     18          7           0       -9.014383    0.096642   -0.714117
     19          6           0       -8.617310    1.168165   -0.044685
     20          6           0       -9.524552    1.944298    0.700998
     21          8           0       -9.010782    2.932804    1.452113
     22          6           0       -9.895615    3.755309    2.161684
     23          6           0      -10.865834    1.614801    0.654581
     24          6           0       -7.178758    1.460987   -0.065396
     25          6           0       -6.518868    2.648431   -0.238563
     26          8           0       -7.187022    3.800738   -0.438361
     27          6           0       -6.422570    4.968293   -0.579176
     28          6           0       -5.102607    2.498920   -0.249580
     29          6           0       -4.713573    1.199903   -0.104930
     30         16           0       -6.062592    0.157721    0.040981
     31          6           0       -3.341641    0.679358   -0.074601
     32          6           0       -2.305258    1.427656    0.463016
     33          7           0       -1.053901    0.998008    0.522816
     34          6           0       -0.749714   -0.205141    0.058800
     35          6           0       -1.718431   -1.020757   -0.555828
     36          8           0       -1.293219   -2.169658   -1.104450
     37          6           0       -2.249265   -3.034945   -1.656511
     38          6           0       -3.025257   -0.572365   -0.599099
     39          6           0        0.656391   -0.614922    0.161812
     40          6           0        1.203254   -1.805666    0.559750
     41          8           0        0.431020   -2.835910    0.952837
     42          6           0        1.081543   -4.029097    1.301352
     43          6           0        2.627431   -1.785609    0.569832
     44          6           0        3.135523   -0.575657    0.199752
     45         16           0        1.888671    0.540765   -0.157799
     46          6           0        4.549979   -0.196873    0.101187
     47          6           0        5.513092   -1.122723   -0.271241
     48          7           0        6.799174   -0.827737   -0.382921
     49          6           0        7.213979    0.406556   -0.139051
     50          6           0        6.324429    1.406228    0.296474
     51          8           0        6.854013    2.593426    0.634370
     52          6           0        5.980813    3.628944    0.996709
     53          6           0        4.981207    1.095251    0.395031
     54          6           0        8.653397    0.657897   -0.285379
     55          6           0        9.312101    1.697503   -0.885672
     56          8           0        8.642080    2.706306   -1.476199
     57          6           0        9.405150    3.722530   -2.067933
     58          6           0       10.727301    1.542399   -0.861913
     59          6           0       11.116007    0.378833   -0.265000
     60         16           0        9.767731   -0.528889    0.266566
     61          6           0       12.489269   -0.102637   -0.072081
     62          6           0       12.803678   -1.452283   -0.113283
     63          7           0       14.037445   -1.915029    0.025574
     64          6           0       15.038976   -1.069984    0.213905
     65          6           0       14.816758    0.314855    0.333767
     66          8           0       15.876002    1.079336    0.650155
     67          6           0       15.695908    2.466950    0.714904
     68          6           0       13.530603    0.792349    0.169032
     69          6           0       16.379502   -1.654031    0.356588
     70          6           0       17.566863   -1.276378   -0.210712
     71          8           0       17.642071   -0.221835   -1.047506
     72          6           0       18.906138    0.093464   -1.564993
     73          6           0       18.646883   -2.141298    0.138923
     74          6           0       18.239962   -3.156256    0.944088
     75         16           0       16.575410   -3.093507    1.276749
     76          1           0      -18.367192   -4.939993   -0.986006
     77          1           0      -16.177243   -4.848122   -2.181934
     78          1           0      -19.242765   -0.954521    1.320609
     79          1           0      -18.289195   -0.221199    2.638726
     80          1           0      -18.523723   -1.988269    2.596079
     81          1           0      -18.894601   -3.175284    0.680878
     82          1           0      -17.325585    2.563218   -0.400212
     83          1           0      -15.718889    2.740306   -1.150649
     84          1           0      -15.876502    2.673859    0.633289
     85          1           0      -13.659787    2.075861   -0.156983
     86          1           0      -10.566253   -1.105992   -1.323867
     87          1           0       -9.280140    4.500710    2.670925
     88          1           0      -10.596808    4.269070    1.488851
     89          1           0      -10.463910    3.189154    2.913443
     90          1           0      -11.600017    2.177026    1.225002
     91          1           0       -5.772574    4.924812   -1.464508
     92          1           0       -7.132226    5.790204   -0.704297
     93          1           0       -5.807918    5.160705    0.311498
     94          1           0       -4.397139    3.309474   -0.400990
     95          1           0       -2.498756    2.413306    0.887101
     96          1           0       -2.991169   -3.345912   -0.907945
     97          1           0       -2.766929   -2.576866   -2.511103
     98          1           0       -1.701825   -3.914252   -2.003861
     99          1           0       -3.804096   -1.166240   -1.070925
    100          1           0        1.671477   -4.428518    0.464464
    101          1           0        0.297192   -4.746257    1.556531
    102          1           0        1.735978   -3.895575    2.174294
    103          1           0        3.254238   -2.616073    0.878183
    104          1           0        5.229604   -2.147375   -0.512903
    105          1           0        5.273462    3.861254    0.188419
    106          1           0        6.606109    4.504516    1.186711
    107          1           0        5.419400    3.387081    1.910287
    108          1           0        4.260078    1.834120    0.735541
    109          1           0       10.044779    4.230963   -1.332359
    110          1           0        8.694813    4.445158   -2.477880
    111          1           0       10.030475    3.338139   -2.886267
    112          1           0       11.431950    2.237672   -1.307194
    113          1           0       12.024855   -2.196443   -0.285903
    114          1           0       14.987433    2.749647    1.506697
    115          1           0       15.347203    2.874134   -0.244802
    116          1           0       16.674759    2.893082    0.947562
    117          1           0       13.309878    1.851693    0.267096
    118          1           0       19.312919   -0.726185   -2.174347
    119          1           0       18.770755    0.971182   -2.202439
    120          1           0       19.621954    0.339857   -0.767831
    121          1           0       19.671538   -2.022802   -0.198221
    122          1           0       18.854429   -3.951222    1.354291
 ---------------------------------------------------------------------

 Alpha  occ. eigenvalues --   -1.25217  -1.25142  -1.24890  -1.24865  -1.24852
 Alpha  occ. eigenvalues --   -1.24006  -1.23931  -1.23751  -1.23664  -1.23508
 Alpha  occ. eigenvalues --   -1.12923  -1.12759  -1.12648  -1.12596  -1.12503
 Alpha  occ. eigenvalues --   -1.07488  -1.07225  -1.06960  -1.06669  -1.05999
 Alpha  occ. eigenvalues --   -0.99975  -0.99525  -0.98971  -0.98477  -0.97837
 Alpha  occ. eigenvalues --   -0.96498  -0.96311  -0.96057  -0.95621  -0.95159
 Alpha  occ. eigenvalues --   -0.92554  -0.92021  -0.91629  -0.91481  -0.91189
 Alpha  occ. eigenvalues --   -0.91025  -0.90618  -0.90089  -0.89595  -0.89165
 Alpha  occ. eigenvalues --   -0.87958  -0.87603  -0.87416  -0.87328  -0.86986
 Alpha  occ. eigenvalues --   -0.85737  -0.85443  -0.85024  -0.84156  -0.83121
 Alpha  occ. eigenvalues --   -0.81834  -0.80464  -0.79306  -0.78493  -0.77815
 Alpha  occ. eigenvalues --   -0.77074  -0.76915  -0.76868  -0.76706  -0.76467
 Alpha  occ. eigenvalues --   -0.72058  -0.71967  -0.71849  -0.71734  -0.71472
 Alpha  occ. eigenvalues --   -0.71231  -0.70820  -0.70612  -0.70566  -0.70145
 Alpha  occ. eigenvalues --   -0.69713  -0.69270  -0.68945  -0.68404  -0.67992
 Alpha  occ. eigenvalues --   -0.67318  -0.66217  -0.65997  -0.65879  -0.65724
 Alpha  occ. eigenvalues --   -0.65580  -0.65119  -0.65003  -0.64845  -0.64788
 Alpha  occ. eigenvalues --   -0.62930  -0.62843  -0.62668  -0.62552  -0.62481
 Alpha  occ. eigenvalues --   -0.62133  -0.62039  -0.61971  -0.61847  -0.61692
 Alpha  occ. eigenvalues --   -0.61625  -0.61507  -0.61340  -0.61161  -0.61075
 Alpha  occ. eigenvalues --   -0.59718  -0.59538  -0.59261  -0.58954  -0.58431
 Alpha  occ. eigenvalues --   -0.57569  -0.57438  -0.57370  -0.57253  -0.57090
 Alpha  occ. eigenvalues --   -0.57036  -0.56894  -0.56843  -0.56698  -0.56568
 Alpha  occ. eigenvalues --   -0.56423  -0.56128  -0.55998  -0.55820  -0.55626
 Alpha  occ. eigenvalues --   -0.55552  -0.54591  -0.54346  -0.54314  -0.54264
 Alpha  occ. eigenvalues --   -0.54081  -0.53587  -0.53286  -0.52964  -0.52648
 Alpha  occ. eigenvalues --   -0.52387  -0.51949  -0.51903  -0.51782  -0.51556
 Alpha  occ. eigenvalues --   -0.51425  -0.51266  -0.51160  -0.50942  -0.50869
 Alpha  occ. eigenvalues --   -0.50521  -0.47939  -0.47717  -0.47680  -0.47625
 Alpha  occ. eigenvalues --   -0.47528  -0.47391  -0.47137  -0.47132  -0.47046
 Alpha  occ. eigenvalues --   -0.46996  -0.46610  -0.46518  -0.46417  -0.46347
 Alpha  occ. eigenvalues --   -0.46193  -0.46068  -0.45931  -0.45772  -0.45668
 Alpha  occ. eigenvalues --   -0.45408  -0.45235  -0.44949  -0.44877  -0.44625
 Alpha  occ. eigenvalues --   -0.44476  -0.41823  -0.41320  -0.40713  -0.40058
 Alpha  occ. eigenvalues --   -0.39652  -0.38341  -0.38212  -0.38160  -0.38046
 Alpha  occ. eigenvalues --   -0.37980  -0.35994  -0.35819  -0.35718  -0.35615
 Alpha  occ. eigenvalues --   -0.35277  -0.33833  -0.33720  -0.33568  -0.33458
 Alpha  occ. eigenvalues --   -0.33316  -0.31653  -0.30917  -0.29704  -0.28537
 Alpha  occ. eigenvalues --   -0.27634
 Alpha virt. eigenvalues --    0.01132   0.02158   0.03620   0.05236   0.06465
 Alpha virt. eigenvalues --    0.07684   0.07902   0.08018   0.08181   0.08841
 Alpha virt. eigenvalues --    0.09113   0.10731   0.11752   0.12596   0.13312

  Beta  occ. eigenvalues --  -88.34838 -88.34814 -88.34682 -88.34579 -88.34276
  Beta  occ. eigenvalues --  -19.04981 -19.04910 -19.04667 -19.04626 -19.04605
  Beta  occ. eigenvalues --  -19.04244 -19.04154 -19.03981 -19.03884 -19.03746
  Beta  occ. eigenvalues --  -14.24700 -14.24603 -14.24526 -14.24471 -14.24314
  Beta  occ. eigenvalues --  -10.22664 -10.22530 -10.22417 -10.22359 -10.22311
  Beta  occ. eigenvalues --  -10.21636 -10.21615 -10.21505 -10.21482 -10.21416
  Beta  occ. eigenvalues --  -10.21401 -10.21243 -10.21121 -10.21063 -10.21024
  Beta  occ. eigenvalues --  -10.20929 -10.20914 -10.20847 -10.20647 -10.20600
  Beta  occ. eigenvalues --  -10.20090 -10.20042 -10.19897 -10.19805 -10.19714
  Beta  occ. eigenvalues --  -10.19414 -10.19340 -10.19191 -10.19165 -10.18158
  Beta  occ. eigenvalues --  -10.18099 -10.18062 -10.17990 -10.17970 -10.17956
  Beta  occ. eigenvalues --  -10.17921 -10.17819 -10.17817 -10.17734 -10.17244
  Beta  occ. eigenvalues --  -10.17234 -10.17229 -10.17223 -10.17056 -10.16996
  Beta  occ. eigenvalues --  -10.16950 -10.16926 -10.16893 -10.16675 -10.16531
  Beta  occ. eigenvalues --  -10.15936 -10.15781 -10.15668 -10.15613 -10.15402
  Beta  occ. eigenvalues --   -7.95724  -7.95705  -7.95575  -7.95466  -7.95178
  Beta  occ. eigenvalues --   -5.96954  -5.96935  -5.96805  -5.96697  -5.96407
  Beta  occ. eigenvalues --   -5.96399  -5.96391  -5.96263  -5.96149  -5.95982
  Beta  occ. eigenvalues --   -5.95960  -5.95851  -5.95829  -5.95723  -5.95451
  Beta  occ. eigenvalues --   -1.25217  -1.25142  -1.24890  -1.24865  -1.24852
  Beta  occ. eigenvalues --   -1.24006  -1.23931  -1.23751  -1.23664  -1.23508
  Beta  occ. eigenvalues --   -1.12923  -1.12759  -1.12648  -1.12596  -1.12503
  Beta  occ. eigenvalues --   -1.07488  -1.07225  -1.06960  -1.06669  -1.05999
  Beta  occ. eigenvalues --   -0.99975  -0.99525  -0.98971  -0.98477  -0.97837
  Beta  occ. eigenvalues --   -0.96498  -0.96311  -0.96057  -0.95621  -0.95159
  Beta  occ. eigenvalues --   -0.92554  -0.92021  -0.91629  -0.91481  -0.91189
  Beta  occ. eigenvalues --   -0.91025  -0.90618  -0.90089  -0.89595  -0.89165
  Beta  occ. eigenvalues --   -0.87958  -0.87603  -0.87416  -0.87328  -0.86986
  Beta  occ. eigenvalues --   -0.85737  -0.85443  -0.85024  -0.84156  -0.83121
  Beta  occ. eigenvalues --   -0.81834  -0.80464  -0.79306  -0.78493  -0.77815
  Beta  occ. eigenvalues --   -0.77074  -0.76915  -0.76868  -0.76706  -0.76467
  Beta  occ. eigenvalues --   -0.72058  -0.71967  -0.71849  -0.71734  -0.71472
  Beta  occ. eigenvalues --   -0.71231  -0.70820  -0.70612  -0.70566  -0.70145
  Beta  occ. eigenvalues --   -0.69713  -0.69270  -0.68945  -0.68404  -0.67992
  Beta  occ. eigenvalues --   -0.67318  -0.66217  -0.65997  -0.65879  -0.65724
  Beta  occ. eigenvalues --   -0.65580  -0.65119  -0.65003  -0.64845  -0.64788
  Beta  occ. eigenvalues --   -0.62930  -0.62843  -0.62668  -0.62552  -0.62481
  Beta  occ. eigenvalues --   -0.62133  -0.62039  -0.61971  -0.61847  -0.61692
  Beta  occ. eigenvalues --   -0.61625  -0.61507  -0.61340  -0.61161  -0.61075
  Beta  occ. eigenvalues --   -0.59718  -0.59538  -0.59261  -0.58954  -0.58431
  Beta  occ. eigenvalues --   -0.57569  -0.57438  -0.57370  -0.57253  -0.57090
  Beta  occ. eigenvalues --   -0.57036  -0.56894  -0.56843  -0.56698  -0.56568
  Beta  occ. eigenvalues --   -0.56423  -0.56128  -0.55998  -0.55820  -0.55626
  Beta  occ. eigenvalues --   -0.55552  -0.54591  -0.54346  -0.54314  -0.54264
  Beta  occ. eigenvalues --   -0.54081  -0.53587  -0.53286  -0.52964  -0.52648
  Beta  occ. eigenvalues --   -0.52387  -0.51949  -0.51903  -0.51782  -0.51556
  Beta  occ. eigenvalues --   -0.51425  -0.51266  -0.51160  -0.50942  -0.50869
  Beta  occ. eigenvalues --   -0.50521  -0.47939  -0.47717  -0.47680  -0.47625
  Beta  occ. eigenvalues --   -0.47528  -0.47391  -0.47137  -0.47132  -0.47046
  Beta  occ. eigenvalues --   -0.46996  -0.46610  -0.46518  -0.46417  -0.46347
  Beta  occ. eigenvalues --   -0.46193  -0.46068  -0.45931  -0.45772  -0.45668
  Beta  occ. eigenvalues --   -0.45408  -0.45235  -0.44949  -0.44877  -0.44625
  Beta  occ. eigenvalues --   -0.44476  -0.41823  -0.41320  -0.40713  -0.40058
  Beta  occ. eigenvalues --   -0.39652  -0.38341  -0.38212  -0.38160  -0.38046
  Beta  occ. eigenvalues --   -0.37980  -0.35994  -0.35819  -0.35718  -0.35615
  Beta  occ. eigenvalues --   -0.35277  -0.33833  -0.33720  -0.33568  -0.33458
  Beta  occ. eigenvalues --   -0.33316  -0.31653  -0.30917  -0.29704  -0.28537
  Beta  occ. eigenvalues --   -0.27634
  Beta virt. eigenvalues --    0.01132   0.02158   0.03620   0.05236   0.06465
  Beta virt. eigenvalues --    0.07684   0.07902   0.08018   0.08181   0.08841
  Beta virt. eigenvalues --    0.09113   0.10731   0.11752   0.12596   0.13312

 Mulliken charges and spin densities:
               1          2
     1  C   -0.063818  -0.000000
     2  C    0.069099   0.000000
     3  N   -0.197183  -0.000000
     4  C    0.056151   0.000000
     5  C    0.123873   0.000000
     6  O   -0.242715  -0.000000
     7  C    0.031864  -0.000000
     8  C   -0.015646   0.000000
     9  C   -0.192784  -0.000000
    10  C    0.181482  -0.000000
    11  O   -0.252578  -0.000000
    12  C    0.032691   0.000000
    13  C   -0.033896   0.000000
    14  C   -0.172822  -0.000000
    15  S    0.214939  -0.000000
    16  C   -0.044078  -0.000000
    17  C    0.078266   0.000000
    18  N   -0.195413  -0.000000
    19  C    0.065129   0.000000
    20  C    0.133945   0.000000
    21  O   -0.242984  -0.000000
    22  C    0.033846  -0.000000
    23  C    0.000450  -0.000000
    24  C   -0.195256  -0.000000
    25  C    0.178162  -0.000000
    26  O   -0.252649   0.000000
    27  C    0.031622  -0.000000
    28  C   -0.030204   0.000000
    29  C   -0.169862  -0.000000
    30  S    0.204378  -0.000000
    31  C   -0.041835   0.000000
    32  C    0.072816  -0.000000
    33  N   -0.195643   0.000000
    34  C    0.062498   0.000000
    35  C    0.133498  -0.000000
    36  O   -0.243621  -0.000000
    37  C    0.030852  -0.000000
    38  C    0.002849   0.000000
    39  C   -0.194453  -0.000000
    40  C    0.179696   0.000000
    41  O   -0.251683  -0.000000
    42  C    0.031033   0.000000
    43  C   -0.029472  -0.000000
    44  C   -0.169782   0.000000
    45  S    0.198864   0.000000
    46  C   -0.041834  -0.000000
    47  C    0.074092   0.000000
    48  N   -0.193502   0.000000
    49  C    0.062389   0.000000
    50  C    0.132448  -0.000000
    51  O   -0.244402  -0.000000
    52  C    0.031605  -0.000000
    53  C    0.002922   0.000000
    54  C   -0.196181  -0.000000
    55  C    0.179467  -0.000000
    56  O   -0.251562   0.000000
    57  C    0.032707   0.000000
    58  C   -0.033259  -0.000000
    59  C   -0.171888   0.000000
    60  S    0.214353   0.000000
    61  C   -0.044950  -0.000000
    62  C    0.077461   0.000000
    63  N   -0.192599  -0.000000
    64  C    0.070859  -0.000000
    65  C    0.133914   0.000000
    66  O   -0.242990  -0.000000
    67  C    0.034161   0.000000
    68  C   -0.000482   0.000000
    69  C   -0.204036   0.000000
    70  C    0.161851  -0.000000
    71  O   -0.252833   0.000000
    72  C    0.031096   0.000000
    73  C   -0.022555   0.000000
    74  C   -0.147751  -0.000000
    75  S    0.201310   0.000000
    76  H    0.019013   0.000000
    77  H    0.024076  -0.000000
    78  H    0.052923   0.000000
    79  H    0.066799  -0.000000
    80  H    0.052646   0.000000
    81  H    0.023420   0.000000
    82  H    0.063054   0.000000
    83  H    0.053381  -0.000000
    84  H    0.047115  -0.000000
    85  H    0.013709  -0.000000
    86  H    0.029704   0.000000
    87  H    0.067985   0.000000
    88  H    0.050308   0.000000
    89  H    0.055008  -0.000000
    90  H    0.014530  -0.000000
    91  H    0.053968  -0.000000
    92  H    0.062245   0.000000
    93  H    0.051098   0.000000
    94  H    0.018865  -0.000000
    95  H    0.016022   0.000000
    96  H    0.057165   0.000000
    97  H    0.056907  -0.000000
    98  H    0.067537   0.000000
    99  H    0.028405   0.000000
   100  H    0.051842  -0.000000
   101  H    0.063925  -0.000000
   102  H    0.053789   0.000000
   103  H    0.020211   0.000000
   104  H    0.018122  -0.000000
   105  H    0.056256   0.000000
   106  H    0.065645   0.000000
   107  H    0.056479  -0.000000
   108  H    0.026931  -0.000000
   109  H    0.046927  -0.000000
   110  H    0.063665   0.000000
   111  H    0.053223  -0.000000
   112  H    0.013579  -0.000000
   113  H    0.029820   0.000000
   114  H    0.054385  -0.000000
   115  H    0.049975  -0.000000
   116  H    0.067107  -0.000000
   117  H    0.014134  -0.000000
   118  H    0.051737  -0.000000
   119  H    0.061287   0.000000
   120  H    0.049699  -0.000000
   121  H    0.019177   0.000000
   122  H    0.046765  -0.000000
 Sum of Mulliken charges =  -0.00000   0.00000

 Dipole moment (field-independent basis, Debye):
    X=             -4.7724    Y=              8.5410    Z=              1.9994  Tot=              9.9861
 Quadrupole moment (field-independent basis, Debye-Ang):
   XX=           -241.1354   YY=           -387.7734   ZZ=           -460.0651
   XY=             30.4218   XZ=            -55.1706   YZ=             -0.4967

 Normal termination of Gaussian 16 at Fri Jul 24 22:18:34 2020.
