 Gaussian 16, Revision A.03,
 Gaussian 16:  EM64L-G16RevA.03 25-Dec-2016

 ---------------------------------------------------------------
 #P uLC-wPBE/cc-pVDZ iop(3/107=0106100000, 3/108=0106100000) opt
 ---------------------------------------------------------------

 ---------
 H8 C10 S1
 ---------
 Symbolic Z-matrix:
 Charge =  0 Multiplicity = 1

 SCF Done:  E(ULC-wPBE) =  -783.511392192     A.U. after   15 cycles
 SCF Done:  E(ULC-wPBE) =  -783.532091205     A.U. after   14 cycles
 SCF Done:  E(ULC-wPBE) =  -783.535259629     A.U. after   13 cycles
 SCF Done:  E(ULC-wPBE) =  -783.535464423     A.U. after   11 cycles
 SCF Done:  E(ULC-wPBE) =  -783.535492408     A.U. after   10 cycles
 SCF Done:  E(ULC-wPBE) =  -783.535497808     A.U. after   10 cycles
 SCF Done:  E(ULC-wPBE) =  -783.535500768     A.U. after   10 cycles
 SCF Done:  E(ULC-wPBE) =  -783.535518704     A.U. after   12 cycles
 SCF Done:  E(ULC-wPBE) =  -783.535170385     A.U. after   16 cycles
 SCF Done:  E(ULC-wPBE) =  -783.535556093     A.U. after   12 cycles
 SCF Done:  E(ULC-wPBE) =  -783.535587225     A.U. after   13 cycles
 SCF Done:  E(ULC-wPBE) =  -783.535627025     A.U. after   11 cycles
 SCF Done:  E(ULC-wPBE) =  -783.535648615     A.U. after   13 cycles
 SCF Done:  E(ULC-wPBE) =  -783.535735095     A.U. after   12 cycles
 SCF Done:  E(ULC-wPBE) =  -783.535882374     A.U. after   13 cycles
 SCF Done:  E(ULC-wPBE) =  -783.535912751     A.U. after   10 cycles
 SCF Done:  E(ULC-wPBE) =  -783.535912854     A.U. after   12 cycles
 SCF Done:  E(ULC-wPBE) =  -783.535910147     A.U. after   12 cycles
 SCF Done:  E(ULC-wPBE) =  -783.535916955     A.U. after   11 cycles
 Optimization completed.
    -- Stationary point found.

                         Standard orientation:
 ---------------------------------------------------------------------
 Center     Atomic      Atomic             Coordinates (Angstroms)
 Number     Number       Type             X           Y           Z
 ---------------------------------------------------------------------
      1          6           0        3.520117   -0.071636   -0.002563
      2          6           0        2.886387    1.152932   -0.262630
      3          6           0        1.489638    1.243414   -0.254694
      4          6           0        0.691905    0.110761    0.028094
      5          6           0        1.343855   -1.115471    0.290024
      6          6           0        2.740775   -1.205846    0.269429
      7          6           0       -0.774970    0.224281    0.051850
      8          6           0       -1.557473    1.341046    0.309886
      9          6           0       -2.958929    1.084240    0.247560
     10          6           0       -3.246023   -0.228967   -0.061265
     11         16           0       -1.800239   -1.161821   -0.283349
     12          1           0        4.617052   -0.142238   -0.014879
     13          1           0        3.485794    2.047260   -0.486472
     14          1           0        1.003765    2.200494   -0.491584
     15          1           0        0.743897   -2.005912    0.530343
     16          1           0        3.224770   -2.170964    0.477681
     17          1           0       -1.128157    2.316954    0.569248
     18          1           0       -3.730584    1.842260    0.431603
     19          1           0       -4.224396   -0.707242   -0.176497
 ---------------------------------------------------------------------

 The electronic state is 1-A.
 Alpha  occ. eigenvalues --  -88.15963  -9.99254  -9.98618  -9.98123  -9.96643
 Alpha  occ. eigenvalues --   -9.96635  -9.96614  -9.96606  -9.96604  -9.96495
 Alpha  occ. eigenvalues --   -9.96435  -7.76237  -5.78308  -5.77865  -5.77507
 Alpha  occ. eigenvalues --   -0.86772  -0.83727  -0.76068  -0.73852  -0.72489
 Alpha  occ. eigenvalues --   -0.69803  -0.61413  -0.60808  -0.55858  -0.55045
 Alpha  occ. eigenvalues --   -0.52811  -0.49618  -0.46306  -0.45922  -0.43137
 Alpha  occ. eigenvalues --   -0.42361  -0.41418  -0.40514  -0.39535  -0.38201
 Alpha  occ. eigenvalues --   -0.37118  -0.36175  -0.34980  -0.30625  -0.28657
 Alpha  occ. eigenvalues --   -0.28029  -0.24509
 Alpha virt. eigenvalues --   -0.01635   0.01288   0.03921   0.06061   0.08241
 Alpha virt. eigenvalues --    0.09264   0.10773   0.11986   0.13085   0.14392
 Alpha virt. eigenvalues --    0.15498   0.16423   0.17125   0.18669   0.20179

  Beta  occ. eigenvalues --  -88.15963  -9.99254  -9.98618  -9.98123  -9.96643
  Beta  occ. eigenvalues --   -9.96635  -9.96614  -9.96606  -9.96604  -9.96495
  Beta  occ. eigenvalues --   -9.96435  -7.76237  -5.78308  -5.77865  -5.77507
  Beta  occ. eigenvalues --   -0.86772  -0.83727  -0.76068  -0.73852  -0.72489
  Beta  occ. eigenvalues --   -0.69803  -0.61413  -0.60808  -0.55858  -0.55045
  Beta  occ. eigenvalues --   -0.52811  -0.49618  -0.46306  -0.45922  -0.43137
  Beta  occ. eigenvalues --   -0.42361  -0.41418  -0.40514  -0.39535  -0.38201
  Beta  occ. eigenvalues --   -0.37118  -0.36175  -0.34980  -0.30625  -0.28657
  Beta  occ. eigenvalues --   -0.28029  -0.24509
  Beta virt. eigenvalues --   -0.01635   0.01288   0.03921   0.06061   0.08241
  Beta virt. eigenvalues --    0.09264   0.10773   0.11986   0.13085   0.14392
  Beta virt. eigenvalues --    0.15498   0.16423   0.17125   0.18669   0.20179

 Mulliken charges and spin densities:
               1          2
     1  C    0.024804   0.000000
     2  C    0.034846  -0.000000
     3  C   -0.005172  -0.000000
     4  C    0.085519  -0.000000
     5  C   -0.005774   0.000000
     6  C    0.033996  -0.000000
     7  C   -0.145556   0.000000
     8  C    0.014197  -0.000000
     9  C    0.072708  -0.000000
    10  C   -0.123765  -0.000000
    11  S    0.137752   0.000000
    12  H   -0.020613  -0.000000
    13  H   -0.018917   0.000000
    14  H   -0.028999  -0.000000
    15  H   -0.021781  -0.000000
    16  H   -0.018611  -0.000000
    17  H   -0.017906  -0.000000
    18  H   -0.015368  -0.000000
    19  H    0.018639   0.000000
 Sum of Mulliken charges =  -0.00000  -0.00000

 Dipole moment (field-independent basis, Debye):
    X=             -0.0339    Y=              0.4092    Z=              0.1104  Tot=              0.4252
 Quadrupole moment (field-independent basis, Debye-Ang):
   XX=            -60.7500   YY=            -64.8804   ZZ=            -75.8319
   XY=             -0.4060   XZ=             -0.2553   YZ=             -0.4336

 Normal termination of Gaussian 16 at Sat Jul 25 10:33:50 2020.
