 Gaussian 16, Revision A.03,
 Gaussian 16:  EM64L-G16RevA.03 25-Dec-2016

 ---------------------------------------------------------------
 #P uLC-wPBE/cc-pVDZ iop(3/107=0499100000, 3/108=0499100000) opt
 ---------------------------------------------------------------

 ---------------
 H12 C30 S10 N10
 ---------------
 Symbolic Z-matrix:
 Charge =  0 Multiplicity = 1

 SCF Done:  E(ULC-wPBE) =  -5677.46266876     A.U. after   16 cycles
 SCF Done:  E(ULC-wPBE) =  -5677.53791902     A.U. after   15 cycles
 SCF Done:  E(ULC-wPBE) =  -5677.58873241     A.U. after   14 cycles
 SCF Done:  E(ULC-wPBE) =  -5677.60128708     A.U. after   14 cycles
 SCF Done:  E(ULC-wPBE) =  -5677.60262518     A.U. after   14 cycles
 SCF Done:  E(ULC-wPBE) =  -5677.60264137     A.U. after   13 cycles
 SCF Done:  E(ULC-wPBE) =  -5677.60309215     A.U. after   14 cycles
 SCF Done:  E(ULC-wPBE) =  -5677.60311285     A.U. after   11 cycles
 SCF Done:  E(ULC-wPBE) =  -5677.60311760     A.U. after   11 cycles
 SCF Done:  E(ULC-wPBE) =  -5677.60312691     A.U. after   11 cycles
 SCF Done:  E(ULC-wPBE) =  -5677.60433198     A.U. after   11 cycles
 SCF Done:  E(ULC-wPBE) =  -5677.60433547     A.U. after   12 cycles
 SCF Done:  E(ULC-wPBE) =  -5677.60433781     A.U. after   11 cycles
 SCF Done:  E(ULC-wPBE) =  -5677.60434558     A.U. after   12 cycles
 SCF Done:  E(ULC-wPBE) =  -5677.60435050     A.U. after   12 cycles
 SCF Done:  E(ULC-wPBE) =  -5677.60435403     A.U. after   12 cycles
 SCF Done:  E(ULC-wPBE) =  -5677.60435502     A.U. after   11 cycles
 SCF Done:  E(ULC-wPBE) =  -5677.60435541     A.U. after   11 cycles
 SCF Done:  E(ULC-wPBE) =  -5677.60435530     A.U. after    7 cycles
 SCF Done:  E(ULC-wPBE) =  -5677.60435532     A.U. after    7 cycles
 Optimization completed.
    -- Stationary point found.

                         Standard orientation:
 ---------------------------------------------------------------------
 Center     Atomic      Atomic             Coordinates (Angstroms)
 Number     Number       Type             X           Y           Z
 ---------------------------------------------------------------------
      1          6           0      -18.008048    1.567451   -0.433243
      2          6           0      -17.096512    2.292358   -1.124028
      3          7           0      -15.804466    1.871301   -1.008217
      4          6           0      -15.739957    0.837084   -0.236157
      5         16           0      -17.235335    0.298395    0.405376
      6          6           0      -14.492277    0.155101    0.083658
      7          7           0      -14.415878   -0.878963    0.854739
      8          6           0      -13.123525   -1.286576    0.972189
      9          6           0      -12.206877   -0.562138    0.275806
     10         16           0      -13.004997    0.704262   -0.569115
     11          6           0      -10.771428   -0.791271    0.202907
     12          6           0      -10.126937   -1.988973    0.164018
     13          7           0       -8.769037   -1.930815    0.123375
     14          6           0       -8.372300   -0.700682    0.120660
     15         16           0       -9.614213    0.478930    0.181512
     16          6           0       -6.970720   -0.309410    0.071779
     17          7           0       -6.570740    0.919140    0.065265
     18          6           0       -5.213428    0.973580    0.009591
     19          6           0       -4.570894   -0.225762   -0.024286
     20         16           0       -5.730750   -1.492774    0.022823
     21          6           0       -3.142680   -0.485713   -0.093142
     22          6           0       -2.505215   -1.607147   -0.527585
     23          7           0       -1.146767   -1.571062   -0.488918
     24          6           0       -0.740957   -0.432785   -0.031305
     25         16           0       -1.976027    0.676287    0.397908
     26          6           0        0.663354   -0.082817    0.124404
     27          7           0        1.069372    1.055252    0.582294
     28          6           0        2.427838    1.091291    0.620541
     29          6           0        3.065130   -0.030023    0.185534
     30         16           0        1.898259   -1.191837   -0.305528
     31          6           0        4.493271   -0.290033    0.115957
     32          6           0        5.135500   -1.489463    0.078356
     33          7           0        6.492788   -1.435280    0.022772
     34          6           0        6.893112   -0.206669    0.019619
     35         16           0        5.653436    0.976803    0.072273
     36          6           0        8.294611    0.183747   -0.027059
     37          7           0        8.693205    1.412868   -0.030064
     38          6           0       10.050478    1.468947   -0.086110
     39          6           0       10.694447    0.270350   -0.124334
     40         16           0        9.535921   -0.997787   -0.080223
     41          6           0       12.122907    0.011870   -0.194379
     42          6           0       12.760853   -1.108923   -0.628273
     43          7           0       14.119850   -1.071934   -0.591522
     44          6           0       14.525624    0.066734   -0.135895
     45         16           0       13.289754    1.175684    0.293443
     46          6           0       15.929471    0.423855    0.021489
     47          7           0       16.322659    1.567905    0.476224
     48          6           0       17.685110    1.616662    0.512929
     49          6           0       18.318375    0.499956    0.082142
     50         16           0       17.177124   -0.675258   -0.394503
     51          1           0      -19.079728    1.717473   -0.378776
     52          1           0      -17.322521    3.155764   -1.741332
     53          1           0      -12.882504   -2.131931    1.609063
     54          1           0      -10.624711   -2.953328    0.145698
     55          1           0       -4.719041    1.940288   -0.015385
     56          1           0       -3.004866   -2.496073   -0.901306
     57          1           0        2.927581    1.980140    0.994334
     58          1           0        4.640764   -2.456064    0.100401
     59          1           0       10.544171    2.436022   -0.107805
     60          1           0       12.261755   -1.998899   -1.000495
     61          1           0       18.176970    2.514755    0.872256
     62          1           0       19.384543    0.316054    0.023534
 ---------------------------------------------------------------------

 The electronic state is 1-A.
 Alpha  occ. eigenvalues --  -88.40460 -88.40456 -88.40418 -88.40402 -88.40335
 Alpha  occ. eigenvalues --  -88.40327 -88.40086 -88.40073 -88.39657 -88.39628
 Alpha  occ. eigenvalues --  -14.29479 -14.29478 -14.29426 -14.29401 -14.29377
 Alpha  occ. eigenvalues --  -14.29339 -14.29062 -14.29017 -14.28682 -14.28646
 Alpha  occ. eigenvalues --  -10.27095 -10.27072 -10.27049 -10.27027 -10.26956
 Alpha  occ. eigenvalues --  -10.26938 -10.26727 -10.26698 -10.26274 -10.26242
 Alpha  occ. eigenvalues --  -10.24355 -10.24349 -10.24313 -10.24296 -10.24215
 Alpha  occ. eigenvalues --  -10.24110 -10.24010 -10.23900 -10.22743 -10.22737
 Alpha  occ. eigenvalues --  -10.22724 -10.22704 -10.22580 -10.22544 -10.22462
 Alpha  occ. eigenvalues --  -10.22409 -10.22033 -10.22003 -10.21788 -10.21754
 Alpha  occ. eigenvalues --   -8.01494  -8.01490  -8.01453  -8.01436  -8.01370
 Alpha  occ. eigenvalues --   -8.01358  -8.01121  -8.01104  -8.00702  -8.00674
 Alpha  occ. eigenvalues --   -6.02533  -6.02529  -6.02492  -6.02475  -6.02408
 Alpha  occ. eigenvalues --   -6.02391  -6.02160  -6.02139  -6.01985  -6.01980
 Alpha  occ. eigenvalues --   -6.01943  -6.01927  -6.01860  -6.01845  -6.01722
 Alpha  occ. eigenvalues --   -6.01694  -6.01612  -6.01599  -6.01595  -6.01592
 Alpha  occ. eigenvalues --   -6.01557  -6.01541  -6.01475  -6.01473  -6.01225
 Alpha  occ. eigenvalues --   -6.01217  -6.01176  -6.01148  -6.00841  -6.00813
 Alpha  occ. eigenvalues --   -1.20856  -1.20659  -1.20504  -1.20055  -1.20012
 Alpha  occ. eigenvalues --   -1.18665  -1.18362  -1.18147  -1.17675  -1.17635
 Alpha  occ. eigenvalues --   -1.05077  -1.05062  -1.04844  -1.04782  -1.01162
 Alpha  occ. eigenvalues --   -1.01011  -1.00679  -1.00183  -0.99847  -0.99526
 Alpha  occ. eigenvalues --   -0.99262  -0.99047  -0.98805  -0.98282  -0.97703
 Alpha  occ. eigenvalues --   -0.94105  -0.93172  -0.92068  -0.91218  -0.90670
 Alpha  occ. eigenvalues --   -0.83561  -0.83459  -0.82976  -0.82176  -0.80963
 Alpha  occ. eigenvalues --   -0.79808  -0.79692  -0.78341  -0.77006  -0.76006
 Alpha  occ. eigenvalues --   -0.75543  -0.74150  -0.73266  -0.72688  -0.72503
 Alpha  occ. eigenvalues --   -0.71991  -0.71194  -0.70077  -0.69625  -0.69508
 Alpha  occ. eigenvalues --   -0.69298  -0.69023  -0.68093  -0.66327  -0.65241
 Alpha  occ. eigenvalues --   -0.64811  -0.63068  -0.62947  -0.62882  -0.62586
 Alpha  occ. eigenvalues --   -0.62494  -0.62342  -0.62028  -0.61599  -0.61457
 Alpha  occ. eigenvalues --   -0.59976  -0.59421  -0.58806  -0.58493  -0.58329
 Alpha  occ. eigenvalues --   -0.58186  -0.58065  -0.57626  -0.57467  -0.57233
 Alpha  occ. eigenvalues --   -0.56889  -0.56726  -0.56475  -0.55497  -0.54626
 Alpha  occ. eigenvalues --   -0.54121  -0.53892  -0.53637  -0.53360  -0.53031
 Alpha  occ. eigenvalues --   -0.51203  -0.51135  -0.50740  -0.50353  -0.50247
 Alpha  occ. eigenvalues --   -0.50092  -0.48142  -0.46927  -0.45762  -0.44895
 Alpha  occ. eigenvalues --   -0.44538  -0.44187  -0.43922  -0.43589  -0.43483
 Alpha  occ. eigenvalues --   -0.42943  -0.42773  -0.42681  -0.42561  -0.42515
 Alpha  occ. eigenvalues --   -0.42482  -0.42269  -0.42194  -0.42111  -0.41827
 Alpha  occ. eigenvalues --   -0.41631  -0.41144  -0.41043  -0.40756  -0.40511
 Alpha  occ. eigenvalues --   -0.39754  -0.37854  -0.35947  -0.34190  -0.32680
 Alpha  occ. eigenvalues --   -0.31589
 Alpha virt. eigenvalues --   -0.02994  -0.01788  -0.00380   0.01028   0.02199
 Alpha virt. eigenvalues --    0.05441   0.07014   0.08379   0.09480   0.10118
 Alpha virt. eigenvalues --    0.10846   0.11082   0.11442   0.11535   0.11629

  Beta  occ. eigenvalues --  -88.40460 -88.40456 -88.40418 -88.40402 -88.40335
  Beta  occ. eigenvalues --  -88.40327 -88.40086 -88.40073 -88.39657 -88.39628
  Beta  occ. eigenvalues --  -14.29479 -14.29478 -14.29426 -14.29401 -14.29377
  Beta  occ. eigenvalues --  -14.29339 -14.29062 -14.29017 -14.28682 -14.28646
  Beta  occ. eigenvalues --  -10.27095 -10.27072 -10.27049 -10.27027 -10.26956
  Beta  occ. eigenvalues --  -10.26938 -10.26727 -10.26698 -10.26274 -10.26242
  Beta  occ. eigenvalues --  -10.24355 -10.24349 -10.24313 -10.24296 -10.24215
  Beta  occ. eigenvalues --  -10.24110 -10.24010 -10.23900 -10.22743 -10.22737
  Beta  occ. eigenvalues --  -10.22724 -10.22704 -10.22580 -10.22544 -10.22462
  Beta  occ. eigenvalues --  -10.22409 -10.22033 -10.22003 -10.21788 -10.21754
  Beta  occ. eigenvalues --   -8.01494  -8.01490  -8.01453  -8.01436  -8.01370
  Beta  occ. eigenvalues --   -8.01358  -8.01121  -8.01104  -8.00702  -8.00674
  Beta  occ. eigenvalues --   -6.02533  -6.02529  -6.02492  -6.02475  -6.02408
  Beta  occ. eigenvalues --   -6.02391  -6.02160  -6.02139  -6.01985  -6.01980
  Beta  occ. eigenvalues --   -6.01943  -6.01927  -6.01860  -6.01845  -6.01722
  Beta  occ. eigenvalues --   -6.01694  -6.01612  -6.01599  -6.01595  -6.01592
  Beta  occ. eigenvalues --   -6.01557  -6.01541  -6.01475  -6.01473  -6.01225
  Beta  occ. eigenvalues --   -6.01217  -6.01176  -6.01148  -6.00841  -6.00813
  Beta  occ. eigenvalues --   -1.20856  -1.20659  -1.20504  -1.20055  -1.20012
  Beta  occ. eigenvalues --   -1.18665  -1.18362  -1.18147  -1.17675  -1.17635
  Beta  occ. eigenvalues --   -1.05077  -1.05062  -1.04844  -1.04782  -1.01162
  Beta  occ. eigenvalues --   -1.01011  -1.00679  -1.00183  -0.99847  -0.99526
  Beta  occ. eigenvalues --   -0.99262  -0.99047  -0.98805  -0.98282  -0.97703
  Beta  occ. eigenvalues --   -0.94105  -0.93172  -0.92068  -0.91218  -0.90670
  Beta  occ. eigenvalues --   -0.83561  -0.83459  -0.82976  -0.82176  -0.80963
  Beta  occ. eigenvalues --   -0.79808  -0.79692  -0.78341  -0.77006  -0.76006
  Beta  occ. eigenvalues --   -0.75543  -0.74150  -0.73266  -0.72688  -0.72503
  Beta  occ. eigenvalues --   -0.71991  -0.71194  -0.70077  -0.69625  -0.69508
  Beta  occ. eigenvalues --   -0.69298  -0.69023  -0.68093  -0.66327  -0.65241
  Beta  occ. eigenvalues --   -0.64811  -0.63068  -0.62947  -0.62882  -0.62586
  Beta  occ. eigenvalues --   -0.62494  -0.62342  -0.62028  -0.61599  -0.61457
  Beta  occ. eigenvalues --   -0.59976  -0.59421  -0.58806  -0.58493  -0.58329
  Beta  occ. eigenvalues --   -0.58186  -0.58065  -0.57626  -0.57467  -0.57233
  Beta  occ. eigenvalues --   -0.56889  -0.56726  -0.56475  -0.55497  -0.54626
  Beta  occ. eigenvalues --   -0.54121  -0.53892  -0.53637  -0.53360  -0.53031
  Beta  occ. eigenvalues --   -0.51203  -0.51135  -0.50740  -0.50353  -0.50247
  Beta  occ. eigenvalues --   -0.50092  -0.48142  -0.46927  -0.45762  -0.44895
  Beta  occ. eigenvalues --   -0.44538  -0.44187  -0.43922  -0.43589  -0.43483
  Beta  occ. eigenvalues --   -0.42943  -0.42773  -0.42681  -0.42561  -0.42515
  Beta  occ. eigenvalues --   -0.42482  -0.42269  -0.42194  -0.42111  -0.41827
  Beta  occ. eigenvalues --   -0.41631  -0.41144  -0.41043  -0.40756  -0.40511
  Beta  occ. eigenvalues --   -0.39754  -0.37854  -0.35947  -0.34190  -0.32680
  Beta  occ. eigenvalues --   -0.31589
  Beta virt. eigenvalues --   -0.02994  -0.01788  -0.00380   0.01028   0.02199
  Beta virt. eigenvalues --    0.05441   0.07014   0.08379   0.09480   0.10118
  Beta virt. eigenvalues --    0.10846   0.11082   0.11442   0.11535   0.11629

 Mulliken charges and spin densities:
               1          2
     1  C   -0.204608  -0.000000
     2  C    0.103815   0.000000
     3  N   -0.209446  -0.000000
     4  C   -0.006456  -0.000000
     5  S    0.218143   0.000000
     6  C    0.020589   0.000000
     7  N   -0.203810   0.000000
     8  C    0.130982  -0.000000
     9  C   -0.224575   0.000000
    10  S    0.237981   0.000000
    11  C   -0.221687  -0.000000
    12  C    0.131447   0.000000
    13  N   -0.205663  -0.000000
    14  C    0.010979  -0.000000
    15  S    0.242019  -0.000000
    16  C    0.015669   0.000000
    17  N   -0.203512   0.000000
    18  C    0.123064  -0.000000
    19  C   -0.212097   0.000000
    20  S    0.230687  -0.000000
    21  C   -0.211752  -0.000000
    22  C    0.123097  -0.000000
    23  N   -0.204266   0.000000
    24  C    0.014170   0.000000
    25  S    0.232049  -0.000000
    26  C    0.014301  -0.000000
    27  N   -0.204166   0.000000
    28  C    0.123092   0.000000
    29  C   -0.211735   0.000000
    30  S    0.231682   0.000000
    31  C   -0.212086  -0.000000
    32  C    0.123103   0.000000
    33  N   -0.204221  -0.000000
    34  C    0.014687   0.000000
    35  S    0.231379   0.000000
    36  C    0.013510  -0.000000
    37  N   -0.204360   0.000000
    38  C    0.122413  -0.000000
    39  C   -0.209673  -0.000000
    40  S    0.230976  -0.000000
    41  C   -0.212478   0.000000
    42  C    0.121686   0.000000
    43  N   -0.202638   0.000000
    44  C    0.023091  -0.000000
    45  S    0.227619  -0.000000
    46  C   -0.007367   0.000000
    47  N   -0.210101  -0.000000
    48  C    0.103914   0.000000
    49  C   -0.204638  -0.000000
    50  S    0.218961  -0.000000
    51  H    0.064123  -0.000000
    52  H    0.037772   0.000000
    53  H    0.039709   0.000000
    54  H    0.040511  -0.000000
    55  H    0.045619  -0.000000
    56  H    0.045588  -0.000000
    57  H    0.045718   0.000000
    58  H    0.045490   0.000000
    59  H    0.045379   0.000000
    60  H    0.044459  -0.000000
    61  H    0.037642  -0.000000
    62  H    0.064220   0.000000
 Sum of Mulliken charges =  -0.00000   0.00000

 Dipole moment (field-independent basis, Debye):
    X=              0.0188    Y=              0.1701    Z=             -0.0460  Tot=              0.1772
 Quadrupole moment (field-independent basis, Debye-Ang):
   XX=           -220.4161   YY=           -345.4193   ZZ=           -354.9157
   XY=             -0.0074   XZ=              3.6076   YZ=             -0.5270

 Normal termination of Gaussian 16 at Fri Jul 24 19:59:20 2020.
