 Gaussian 16, Revision A.03,
 Gaussian 16:  EM64L-G16RevA.03 25-Dec-2016

 ---------------------------------------------------------------
 #P uLC-wPBE/cc-pVDZ iop(3/107=0092500000, 3/108=0092500000) opt
 ---------------------------------------------------------------

 ----------
 H14 C14 O2
 ----------
 Symbolic Z-matrix:
 Charge =  0 Multiplicity = 1

 SCF Done:  E(ULC-wPBE) =  -691.613240835     A.U. after   15 cycles
 SCF Done:  E(ULC-wPBE) =  -691.644439779     A.U. after   13 cycles
 SCF Done:  E(ULC-wPBE) =  -691.654141935     A.U. after   14 cycles
 SCF Done:  E(ULC-wPBE) =  -691.654702627     A.U. after   13 cycles
 SCF Done:  E(ULC-wPBE) =  -691.654694811     A.U. after   13 cycles
 SCF Done:  E(ULC-wPBE) =  -691.654845376     A.U. after   12 cycles
 SCF Done:  E(ULC-wPBE) =  -691.654903452     A.U. after   12 cycles
 SCF Done:  E(ULC-wPBE) =  -691.654909155     A.U. after   10 cycles
 SCF Done:  E(ULC-wPBE) =  -691.654910008     A.U. after    8 cycles
 SCF Done:  E(ULC-wPBE) =  -691.654910383     A.U. after    7 cycles
 SCF Done:  E(ULC-wPBE) =  -691.654910482     A.U. after    7 cycles
 SCF Done:  E(ULC-wPBE) =  -691.654910508     A.U. after    7 cycles
 Optimization completed.
    -- Stationary point found.

                         Standard orientation:
 ---------------------------------------------------------------------
 Center     Atomic      Atomic             Coordinates (Angstroms)
 Number     Number       Type             X           Y           Z
 ---------------------------------------------------------------------
      1          6           0        3.284452   -1.420394   -0.446352
      2          6           0        3.084639   -0.152226    0.120004
      3          6           0        1.795336    0.412234    0.153510
      4          8           0        1.520296    1.642007    0.696101
      5          6           0        2.598572    2.365000    1.276997
      6          6           0        0.684532   -0.296451   -0.384682
      7          6           0        0.921222   -1.568394   -0.937592
      8          6           0        2.203978   -2.133462   -0.977629
      9          6           0       -0.684500    0.296370   -0.384735
     10          6           0       -0.921135    1.568306   -0.937638
     11          6           0       -2.203876    2.133466   -0.977707
     12          6           0       -3.284360    1.420468   -0.446394
     13          6           0       -3.084631    0.152301    0.120029
     14          6           0       -1.795367   -0.412221    0.153501
     15          8           0       -1.520355   -1.641976    0.696240
     16          6           0       -2.598744   -2.365042    1.276836
     17          1           0        4.298246   -1.846186   -0.467450
     18          1           0        3.940418    0.393522    0.536864
     19          1           0        3.386177    2.609731    0.529794
     20          1           0        3.064428    1.807689    2.119857
     21          1           0        2.158876    3.303270    1.660979
     22          1           0        0.066514   -2.121698   -1.349688
     23          1           0        2.354881   -3.126374   -1.423759
     24          1           0       -0.066413    2.121586   -1.349796
     25          1           0       -2.354661    3.126387   -1.423841
     26          1           0       -4.298130    1.846319   -0.467452
     27          1           0       -3.940458   -0.393299    0.536947
     28          1           0       -3.386203   -2.609669    0.529445
     29          1           0       -3.064763   -1.807882    2.119700
     30          1           0       -2.159143   -3.303371    1.660772
 ---------------------------------------------------------------------

 The electronic state is 1-A.
 Alpha  occ. eigenvalues --  -18.84848 -18.84848 -10.00379 -10.00378 -10.00359
 Alpha  occ. eigenvalues --  -10.00359  -9.95388  -9.95376  -9.94901  -9.94901
 Alpha  occ. eigenvalues --   -9.94662  -9.94662  -9.94547  -9.94547  -9.94060
 Alpha  occ. eigenvalues --   -9.94060  -1.02674  -1.02586  -0.82887  -0.81074
 Alpha  occ. eigenvalues --   -0.75218  -0.72945  -0.72105  -0.70535  -0.67821
 Alpha  occ. eigenvalues --   -0.66972  -0.60746  -0.58726  -0.57187  -0.56691
 Alpha  occ. eigenvalues --   -0.53123  -0.51781  -0.48547  -0.47945  -0.46761
 Alpha  occ. eigenvalues --   -0.46195  -0.46177  -0.45788  -0.43797  -0.43346
 Alpha  occ. eigenvalues --   -0.41792  -0.41411  -0.40448  -0.38451  -0.37896
 Alpha  occ. eigenvalues --   -0.37232  -0.36372  -0.35528  -0.35248  -0.33471
 Alpha  occ. eigenvalues --   -0.32513  -0.32264  -0.31648  -0.27959  -0.25727
 Alpha  occ. eigenvalues --   -0.23980  -0.22664
 Alpha virt. eigenvalues --    0.00062   0.02950   0.03122   0.04100   0.08793
 Alpha virt. eigenvalues --    0.08897   0.09643   0.11319   0.12557   0.13198
 Alpha virt. eigenvalues --    0.13967   0.14373   0.15018   0.15168   0.15478

  Beta  occ. eigenvalues --  -18.84848 -18.84848 -10.00379 -10.00378 -10.00359
  Beta  occ. eigenvalues --  -10.00359  -9.95388  -9.95376  -9.94901  -9.94901
  Beta  occ. eigenvalues --   -9.94662  -9.94662  -9.94547  -9.94547  -9.94060
  Beta  occ. eigenvalues --   -9.94060  -1.02674  -1.02586  -0.82887  -0.81074
  Beta  occ. eigenvalues --   -0.75218  -0.72945  -0.72105  -0.70535  -0.67821
  Beta  occ. eigenvalues --   -0.66972  -0.60746  -0.58726  -0.57187  -0.56691
  Beta  occ. eigenvalues --   -0.53123  -0.51781  -0.48547  -0.47945  -0.46761
  Beta  occ. eigenvalues --   -0.46195  -0.46177  -0.45788  -0.43797  -0.43346
  Beta  occ. eigenvalues --   -0.41792  -0.41411  -0.40448  -0.38451  -0.37896
  Beta  occ. eigenvalues --   -0.37232  -0.36372  -0.35528  -0.35248  -0.33471
  Beta  occ. eigenvalues --   -0.32513  -0.32264  -0.31648  -0.27959  -0.25727
  Beta  occ. eigenvalues --   -0.23980  -0.22664
  Beta virt. eigenvalues --    0.00062   0.02950   0.03122   0.04100   0.08793
  Beta virt. eigenvalues --    0.08897   0.09643   0.11319   0.12557   0.13198
  Beta virt. eigenvalues --    0.13967   0.14373   0.15018   0.15168   0.15478

 Mulliken charges and spin densities:
               1          2
     1  C    0.026275   0.000000
     2  C   -0.026003  -0.000000
     3  C    0.088046   0.000000
     4  O   -0.231619   0.000000
     5  C    0.064498  -0.000000
     6  C   -0.005504   0.000000
     7  C    0.050149  -0.000000
     8  C    0.027147   0.000000
     9  C   -0.005470   0.000000
    10  C    0.050100  -0.000000
    11  C    0.027155  -0.000000
    12  C    0.026270   0.000000
    13  C   -0.025993  -0.000000
    14  C    0.088048   0.000000
    15  O   -0.231636  -0.000000
    16  C    0.064505  -0.000000
    17  H   -0.026641  -0.000000
    18  H   -0.026612  -0.000000
    19  H    0.040720   0.000000
    20  H    0.041750   0.000000
    21  H    0.047103   0.000000
    22  H   -0.038937  -0.000000
    23  H   -0.030366  -0.000000
    24  H   -0.038924  -0.000000
    25  H   -0.030367  -0.000000
    26  H   -0.026643  -0.000000
    27  H   -0.026613   0.000000
    28  H    0.040715   0.000000
    29  H    0.041748   0.000000
    30  H    0.047098   0.000000
 Sum of Mulliken charges =  -0.00000  -0.00000

 Dipole moment (field-independent basis, Debye):
    X=              0.0000    Y=              0.0002    Z=              1.1993  Tot=              1.1993
 Quadrupole moment (field-independent basis, Debye-Ang):
   XX=            -79.9413   YY=            -84.1938   ZZ=            -94.3216
   XY=              7.3631   XZ=              0.0000   YZ=              0.0007

 Normal termination of Gaussian 16 at Fri Jul 24 20:57:50 2020.
