 Gaussian 16, Revision A.03,
 Gaussian 16:  EM64L-G16RevA.03 25-Dec-2016

 ---------------------------------------------------------------
 #P uLC-wPBE/cc-pVDZ iop(3/107=0120400000, 3/108=0120400000) opt
 ---------------------------------------------------------------

 -----------------
 H32 C45 S5 N10 O5
 -----------------
 Symbolic Z-matrix:
 Charge =  0 Multiplicity = 1

 SCF Done:  E(ULC-wPBE) =  -4645.30974440     A.U. after   18 cycles
 SCF Done:  E(ULC-wPBE) =  -4645.39264291     A.U. after   14 cycles
 SCF Done:  E(ULC-wPBE) =  -4645.46285695     A.U. after   15 cycles
 SCF Done:  E(ULC-wPBE) =  -4645.48228854     A.U. after   14 cycles
 SCF Done:  E(ULC-wPBE) =  -4645.49047410     A.U. after   15 cycles
 SCF Done:  E(ULC-wPBE) =  -4645.49570416     A.U. after   15 cycles
 SCF Done:  E(ULC-wPBE) =  -4645.49998311     A.U. after   20 cycles
 SCF Done:  E(ULC-wPBE) =  -4645.50597784     A.U. after   14 cycles
 SCF Done:  E(ULC-wPBE) =  -4645.51191199     A.U. after   18 cycles
 SCF Done:  E(ULC-wPBE) =  -4645.51494386     A.U. after   18 cycles
 SCF Done:  E(ULC-wPBE) =  -4645.51813704     A.U. after   12 cycles
 SCF Done:  E(ULC-wPBE) =  -4645.51814478     A.U. after   11 cycles
 SCF Done:  E(ULC-wPBE) =  -4645.51814716     A.U. after   11 cycles
 SCF Done:  E(ULC-wPBE) =  -4645.51814794     A.U. after   10 cycles
 SCF Done:  E(ULC-wPBE) =  -4645.51814826     A.U. after    8 cycles
 SCF Done:  E(ULC-wPBE) =  -4645.51814829     A.U. after    7 cycles
 SCF Done:  E(ULC-wPBE) =  -4645.51814835     A.U. after    7 cycles
 SCF Done:  E(ULC-wPBE) =  -4645.51814820     A.U. after    7 cycles
 SCF Done:  E(ULC-wPBE) =  -4645.51814825     A.U. after    7 cycles
 SCF Done:  E(ULC-wPBE) =  -4645.51814835     A.U. after    6 cycles
 Optimization completed.
    -- Stationary point found.

                         Standard orientation:
 ---------------------------------------------------------------------
 Center     Atomic      Atomic             Coordinates (Angstroms)
 Number     Number       Type             X           Y           Z
 ---------------------------------------------------------------------
      1          6           0       18.672129    1.172082    0.746489
      2          6           0       17.679557    0.271095    1.150727
      3          7           0       16.394118    0.406588    0.799168
      4          6           0       16.023607    1.446961    0.026091
      5          6           0       16.962860    2.418334   -0.435401
      6          8           0       16.496755    3.429178   -1.207306
      7          6           0       17.434972    4.397663   -1.671036
      8          6           0       18.309139    2.259118   -0.056675
      9          6           0       14.587371    1.483755   -0.288473
     10          7           0       13.933720    2.366684   -1.016573
     11          6           0       12.604558    2.052487   -1.071372
     12          6           0       12.195107    0.915706   -0.384843
     13         16           0       13.585743    0.188679    0.387772
     14          6           0       10.846190    0.351412   -0.288008
     15          6           0       10.620937   -1.017639   -0.015998
     16          7           0        9.413761   -1.577867    0.072333
     17          6           0        8.318084   -0.814916   -0.114151
     18          6           0        8.432048    0.576925   -0.401697
     19          8           0        7.268311    1.266180   -0.571675
     20          6           0        7.338346    2.664694   -0.851454
     21          6           0        9.704393    1.155873   -0.477797
     22          6           0        7.022446   -1.514258    0.004631
     23          7           0        6.936426   -2.804856    0.278911
     24          6           0        5.638291   -3.211493    0.330900
     25          6           0        4.660941   -2.250949    0.099370
     26         16           0        5.449842   -0.723232   -0.208227
     27          6           0        3.204246   -2.407584    0.101745
     28          6           0        2.334184   -1.323011    0.351364
     29          7           0        1.004744   -1.433682    0.366913
     30          6           0        0.427888   -2.632139    0.146139
     31          6           0        1.211159   -3.798844   -0.108822
     32          8           0        0.552847   -4.961974   -0.324546
     33          6           0        1.329599   -6.129259   -0.587281
     34          6           0        2.608006   -3.663305   -0.135968
     35          6           0       -1.039338   -2.619153    0.184742
     36          7           0       -1.868767   -3.629322    0.013566
     37          6           0       -3.165085   -3.210634    0.122016
     38          6           0       -3.372512   -1.860445    0.379625
     39         16           0       -1.821717   -1.059227    0.494345
     40          6           0       -4.645852   -1.155635    0.547261
     41          6           0       -5.845072   -1.672720   -0.002584
     42          7           0       -7.034302   -1.086976    0.126390
     43          6           0       -7.140415    0.076158    0.813175
     44          6           0       -5.999752    0.693598    1.395126
     45          8           0       -6.024185    1.909060    2.027692
     46          6           0       -6.496106    1.888435    3.385221
     47          6           0       -4.759373    0.057692    1.250503
     48          6           0       -8.498194    0.635770    0.829451
     49          7           0       -8.923251    1.707659    1.470037
     50          6           0      -10.251754    1.920336    1.226464
     51          6           0      -10.890273    1.014200    0.388916
     52         16           0       -9.734014   -0.194866   -0.122797
     53          6           0      -12.290837    1.007431   -0.043728
     54          6           0      -12.705487    0.379852   -1.239421
     55          7           0      -13.965618    0.355132   -1.677702
     56          6           0      -14.926641    0.968407   -0.959213
     57          6           0      -14.614682    1.639182    0.260175
     58          8           0      -15.652205    2.227838    0.921024
     59          6           0      -15.381586    2.902745    2.148796
     60          6           0      -13.291525    1.646182    0.716628
     61          6           0      -16.294546    0.889505   -1.515158
     62          7           0      -16.563926    0.258369   -2.642821
     63          6           0      -17.896118    0.328558   -2.943476
     64          6           0      -18.688053    1.019098   -2.049701
     65         16           0      -17.721252    1.622036   -0.750223
     66          1           0       19.717693    1.029646    1.052861
     67          1           0       17.922281   -0.597518    1.782640
     68          1           0       17.920949    4.935904   -0.828424
     69          1           0       16.847524    5.113974   -2.271275
     70          1           0       18.218395    3.937347   -2.311472
     71          1           0       19.069931    2.977686   -0.385609
     72          1           0       11.935935    2.685478   -1.670525
     73          1           0       11.478715   -1.695842    0.127611
     74          1           0        7.824099    3.220198   -0.021174
     75          1           0        6.292057    3.000557   -0.955364
     76          1           0        7.885288    2.861174   -1.798140
     77          1           0        9.818352    2.231038   -0.660838
     78          1           0        5.423125   -4.259996    0.578156
     79          1           0        2.741536   -0.320371    0.559288
     80          1           0        1.933158   -6.020720   -1.514326
     81          1           0        0.598712   -6.945458   -0.720757
     82          1           0        2.003491   -6.373564    0.262267
     83          1           0        3.242733   -4.527544   -0.364883
     84          1           0       -3.970247   -3.951551    0.028933
     85          1           0       -5.827665   -2.598968   -0.598432
     86          1           0       -6.351075    2.915062    3.768257
     87          1           0       -7.573948    1.633917    3.426965
     88          1           0       -5.899755    1.179171    3.999512
     89          1           0       -3.882333    0.540477    1.704835
     90          1           0      -10.737914    2.797936    1.673081
     91          1           0      -11.962544   -0.122720   -1.881422
     92          1           0      -14.977990    2.206456    2.914777
     93          1           0      -14.669392    3.742782    2.001850
     94          1           0      -16.352754    3.300738    2.490778
     95          1           0      -13.032600    2.123362    1.669427
     96          1           0      -18.263503   -0.155227   -3.858199
     97          1           0      -19.767568    1.200381   -2.087166
 ---------------------------------------------------------------------

 The electronic state is 1-A.
 Alpha  occ. eigenvalues --  -88.17594 -88.17280 -88.17167 -88.16990 -88.16823
 Alpha  occ. eigenvalues --  -18.89596 -18.89161 -18.88553 -18.88309 -18.85576
 Alpha  occ. eigenvalues --  -14.07707 -14.07694 -14.07689 -14.07285 -14.06971
 Alpha  occ. eigenvalues --  -14.06926 -14.06728 -14.06547 -14.06473 -14.05664
 Alpha  occ. eigenvalues --  -10.04854 -10.04843 -10.04689 -10.04414 -10.04167
 Alpha  occ. eigenvalues --  -10.03869 -10.03671 -10.03524 -10.03182 -10.03168
 Alpha  occ. eigenvalues --  -10.03134 -10.03081 -10.02955 -10.02247 -10.02162
 Alpha  occ. eigenvalues --  -10.01966 -10.01945 -10.01902 -10.01565 -10.00976
 Alpha  occ. eigenvalues --  -10.00894 -10.00868 -10.00825 -10.00764 -10.00682
 Alpha  occ. eigenvalues --  -10.00464 -10.00451 -10.00438 -10.00357 -10.00272
 Alpha  occ. eigenvalues --  -10.00169 -10.00104 -10.00056 -10.00004  -9.99947
 Alpha  occ. eigenvalues --   -9.99833  -9.99829  -9.99547  -9.99463  -9.99243
 Alpha  occ. eigenvalues --   -9.99145  -9.99067  -9.99057  -9.98913  -9.98907
 Alpha  occ. eigenvalues --   -7.77814  -7.77508  -7.77397  -7.77229  -7.77044
 Alpha  occ. eigenvalues --   -5.79870  -5.79556  -5.79446  -5.79437  -5.79277
 Alpha  occ. eigenvalues --   -5.79133  -5.79100  -5.79087  -5.79023  -5.78858
 Alpha  occ. eigenvalues --   -5.78798  -5.78685  -5.78656  -5.78512  -5.78354
 Alpha  occ. eigenvalues --   -1.07418  -1.07009  -1.06778  -1.06543  -1.03753
 Alpha  occ. eigenvalues --   -0.95609  -0.95533  -0.95416  -0.95284  -0.94522
 Alpha  occ. eigenvalues --   -0.93685  -0.93572  -0.93456  -0.93061  -0.92507
 Alpha  occ. eigenvalues --   -0.83378  -0.83090  -0.82911  -0.82896  -0.80884
 Alpha  occ. eigenvalues --   -0.80130  -0.79755  -0.79602  -0.79218  -0.78797
 Alpha  occ. eigenvalues --   -0.78721  -0.78615  -0.78417  -0.78031  -0.77489
 Alpha  occ. eigenvalues --   -0.75260  -0.74490  -0.73657  -0.73331  -0.72644
 Alpha  occ. eigenvalues --   -0.72019  -0.71623  -0.71437  -0.71063  -0.69666
 Alpha  occ. eigenvalues --   -0.67826  -0.66971  -0.66098  -0.65724  -0.65004
 Alpha  occ. eigenvalues --   -0.63855  -0.63332  -0.63285  -0.63014  -0.62881
 Alpha  occ. eigenvalues --   -0.59815  -0.59627  -0.59218  -0.59141  -0.58791
 Alpha  occ. eigenvalues --   -0.58444  -0.58397  -0.57790  -0.57347  -0.56938
 Alpha  occ. eigenvalues --   -0.55676  -0.54985  -0.54899  -0.54817  -0.53816
 Alpha  occ. eigenvalues --   -0.53470  -0.53252  -0.52970  -0.52860  -0.52540
 Alpha  occ. eigenvalues --   -0.51528  -0.51411  -0.51138  -0.50855  -0.50447
 Alpha  occ. eigenvalues --   -0.50286  -0.50088  -0.49940  -0.49882  -0.49611
 Alpha  occ. eigenvalues --   -0.48939  -0.48315  -0.48017  -0.47562  -0.47104
 Alpha  occ. eigenvalues --   -0.46975  -0.46589  -0.46224  -0.45926  -0.45847
 Alpha  occ. eigenvalues --   -0.45585  -0.45424  -0.45359  -0.45067  -0.44958
 Alpha  occ. eigenvalues --   -0.44907  -0.44781  -0.44630  -0.44408  -0.44229
 Alpha  occ. eigenvalues --   -0.43639  -0.43505  -0.43412  -0.43003  -0.42884
 Alpha  occ. eigenvalues --   -0.42602  -0.42489  -0.42241  -0.42010  -0.41992
 Alpha  occ. eigenvalues --   -0.41741  -0.41554  -0.41506  -0.41207  -0.41148
 Alpha  occ. eigenvalues --   -0.40983  -0.39474  -0.39053  -0.38565  -0.38456
 Alpha  occ. eigenvalues --   -0.38271  -0.37884  -0.37599  -0.37562  -0.37541
 Alpha  occ. eigenvalues --   -0.37115  -0.36997  -0.36873  -0.36601  -0.35938
 Alpha  occ. eigenvalues --   -0.35735  -0.35513  -0.34790  -0.34070  -0.33039
 Alpha  occ. eigenvalues --   -0.31546  -0.31193  -0.30972  -0.30935  -0.30872
 Alpha  occ. eigenvalues --   -0.30687  -0.30187  -0.29939  -0.29733  -0.29643
 Alpha  occ. eigenvalues --   -0.29336  -0.29301  -0.29184  -0.29068  -0.28952
 Alpha  occ. eigenvalues --   -0.28750  -0.28676  -0.28647  -0.27726  -0.27573
 Alpha  occ. eigenvalues --   -0.27375  -0.27012  -0.26527  -0.25209  -0.24234
 Alpha  occ. eigenvalues --   -0.23311
 Alpha virt. eigenvalues --   -0.06010  -0.04997  -0.03672  -0.02324  -0.01344
 Alpha virt. eigenvalues --    0.00116   0.00736   0.00833   0.01115   0.01344
 Alpha virt. eigenvalues --    0.01825   0.02905   0.04112   0.05251   0.05714

  Beta  occ. eigenvalues --  -88.17594 -88.17280 -88.17167 -88.16990 -88.16823
  Beta  occ. eigenvalues --  -18.89596 -18.89161 -18.88553 -18.88309 -18.85576
  Beta  occ. eigenvalues --  -14.07707 -14.07694 -14.07689 -14.07285 -14.06971
  Beta  occ. eigenvalues --  -14.06926 -14.06728 -14.06547 -14.06473 -14.05664
  Beta  occ. eigenvalues --  -10.04854 -10.04843 -10.04689 -10.04414 -10.04167
  Beta  occ. eigenvalues --  -10.03869 -10.03671 -10.03524 -10.03182 -10.03168
  Beta  occ. eigenvalues --  -10.03134 -10.03081 -10.02955 -10.02247 -10.02162
  Beta  occ. eigenvalues --  -10.01966 -10.01945 -10.01902 -10.01565 -10.00976
  Beta  occ. eigenvalues --  -10.00894 -10.00868 -10.00825 -10.00764 -10.00682
  Beta  occ. eigenvalues --  -10.00464 -10.00451 -10.00438 -10.00357 -10.00272
  Beta  occ. eigenvalues --  -10.00169 -10.00104 -10.00056 -10.00004  -9.99947
  Beta  occ. eigenvalues --   -9.99833  -9.99829  -9.99547  -9.99463  -9.99243
  Beta  occ. eigenvalues --   -9.99145  -9.99067  -9.99057  -9.98913  -9.98907
  Beta  occ. eigenvalues --   -7.77814  -7.77508  -7.77397  -7.77229  -7.77044
  Beta  occ. eigenvalues --   -5.79870  -5.79556  -5.79446  -5.79437  -5.79277
  Beta  occ. eigenvalues --   -5.79133  -5.79100  -5.79087  -5.79023  -5.78858
  Beta  occ. eigenvalues --   -5.78798  -5.78685  -5.78656  -5.78512  -5.78354
  Beta  occ. eigenvalues --   -1.07418  -1.07009  -1.06778  -1.06543  -1.03753
  Beta  occ. eigenvalues --   -0.95609  -0.95533  -0.95416  -0.95284  -0.94522
  Beta  occ. eigenvalues --   -0.93685  -0.93572  -0.93456  -0.93061  -0.92507
  Beta  occ. eigenvalues --   -0.83378  -0.83090  -0.82911  -0.82896  -0.80884
  Beta  occ. eigenvalues --   -0.80130  -0.79755  -0.79602  -0.79218  -0.78797
  Beta  occ. eigenvalues --   -0.78721  -0.78615  -0.78417  -0.78031  -0.77489
  Beta  occ. eigenvalues --   -0.75260  -0.74490  -0.73657  -0.73331  -0.72644
  Beta  occ. eigenvalues --   -0.72019  -0.71623  -0.71437  -0.71063  -0.69666
  Beta  occ. eigenvalues --   -0.67826  -0.66971  -0.66098  -0.65724  -0.65004
  Beta  occ. eigenvalues --   -0.63855  -0.63332  -0.63285  -0.63014  -0.62881
  Beta  occ. eigenvalues --   -0.59815  -0.59627  -0.59218  -0.59141  -0.58791
  Beta  occ. eigenvalues --   -0.58444  -0.58397  -0.57790  -0.57347  -0.56938
  Beta  occ. eigenvalues --   -0.55676  -0.54985  -0.54899  -0.54817  -0.53816
  Beta  occ. eigenvalues --   -0.53470  -0.53252  -0.52970  -0.52860  -0.52540
  Beta  occ. eigenvalues --   -0.51528  -0.51411  -0.51138  -0.50855  -0.50447
  Beta  occ. eigenvalues --   -0.50286  -0.50088  -0.49940  -0.49882  -0.49611
  Beta  occ. eigenvalues --   -0.48939  -0.48315  -0.48017  -0.47562  -0.47104
  Beta  occ. eigenvalues --   -0.46975  -0.46589  -0.46224  -0.45926  -0.45847
  Beta  occ. eigenvalues --   -0.45585  -0.45424  -0.45359  -0.45067  -0.44958
  Beta  occ. eigenvalues --   -0.44907  -0.44781  -0.44630  -0.44408  -0.44229
  Beta  occ. eigenvalues --   -0.43639  -0.43505  -0.43412  -0.43003  -0.42884
  Beta  occ. eigenvalues --   -0.42602  -0.42489  -0.42241  -0.42010  -0.41992
  Beta  occ. eigenvalues --   -0.41741  -0.41554  -0.41506  -0.41207  -0.41148
  Beta  occ. eigenvalues --   -0.40983  -0.39474  -0.39053  -0.38565  -0.38456
  Beta  occ. eigenvalues --   -0.38271  -0.37884  -0.37599  -0.37562  -0.37541
  Beta  occ. eigenvalues --   -0.37115  -0.36997  -0.36873  -0.36601  -0.35938
  Beta  occ. eigenvalues --   -0.35735  -0.35513  -0.34790  -0.34070  -0.33039
  Beta  occ. eigenvalues --   -0.31546  -0.31193  -0.30972  -0.30935  -0.30872
  Beta  occ. eigenvalues --   -0.30687  -0.30187  -0.29939  -0.29733  -0.29643
  Beta  occ. eigenvalues --   -0.29336  -0.29301  -0.29184  -0.29068  -0.28952
  Beta  occ. eigenvalues --   -0.28750  -0.28676  -0.28647  -0.27726  -0.27573
  Beta  occ. eigenvalues --   -0.27375  -0.27012  -0.26527  -0.25209  -0.24234
  Beta  occ. eigenvalues --   -0.23311
  Beta virt. eigenvalues --   -0.06010  -0.04997  -0.03672  -0.02324  -0.01344
  Beta virt. eigenvalues --    0.00116   0.00736   0.00833   0.01115   0.01344
  Beta virt. eigenvalues --    0.01825   0.02905   0.04112   0.05251   0.05714

 Mulliken charges and spin densities:
               1          2
     1  C   -0.018413   0.000000
     2  C    0.087557  -0.000000
     3  N   -0.210626   0.000000
     4  C    0.093415  -0.000000
     5  C    0.118903   0.000000
     6  O   -0.199078   0.000000
     7  C    0.056303  -0.000000
     8  C    0.022235  -0.000000
     9  C   -0.013252   0.000000
    10  N   -0.169046   0.000000
    11  C    0.107857  -0.000000
    12  C   -0.212298   0.000000
    13  S    0.176811  -0.000000
    14  C    0.015628  -0.000000
    15  C    0.072806   0.000000
    16  N   -0.160125   0.000000
    17  C    0.055496   0.000000
    18  C    0.125560  -0.000000
    19  O   -0.249562  -0.000000
    20  C    0.064443   0.000000
    21  C    0.021654   0.000000
    22  C    0.001020  -0.000000
    23  N   -0.146547   0.000000
    24  C    0.121791  -0.000000
    25  C   -0.211290  -0.000000
    26  S    0.147800   0.000000
    27  C    0.012894   0.000000
    28  C    0.080623  -0.000000
    29  N   -0.209010   0.000000
    30  C    0.099651  -0.000000
    31  C    0.127771   0.000000
    32  O   -0.200507   0.000000
    33  C    0.058562   0.000000
    34  C    0.016629  -0.000000
    35  C   -0.014356   0.000000
    36  N   -0.169844  -0.000000
    37  C    0.111970   0.000000
    38  C   -0.209638  -0.000000
    39  S    0.168019   0.000000
    40  C    0.015816   0.000000
    41  C    0.082905  -0.000000
    42  N   -0.217520  -0.000000
    43  C    0.117284  -0.000000
    44  C    0.047165   0.000000
    45  O   -0.240826   0.000000
    46  C    0.074895  -0.000000
    47  C    0.113791  -0.000000
    48  C   -0.006732   0.000000
    49  N   -0.188259  -0.000000
    50  C    0.115389   0.000000
    51  C   -0.215524   0.000000
    52  S    0.188915  -0.000000
    53  C    0.013137  -0.000000
    54  C    0.070984  -0.000000
    55  N   -0.160055  -0.000000
    56  C    0.065270   0.000000
    57  C    0.125370   0.000000
    58  O   -0.248620  -0.000000
    59  C    0.064949  -0.000000
    60  C    0.019669  -0.000000
    61  C   -0.018838   0.000000
    62  N   -0.149917  -0.000000
    63  C    0.123457   0.000000
    64  C   -0.162838   0.000000
    65  S    0.147859  -0.000000
    66  H   -0.011370  -0.000000
    67  H    0.001364  -0.000000
    68  H    0.046858   0.000000
    69  H    0.058267   0.000000
    70  H    0.047267   0.000000
    71  H   -0.008608   0.000000
    72  H   -0.008155   0.000000
    73  H    0.002393   0.000000
    74  H    0.054596  -0.000000
    75  H    0.059149   0.000000
    76  H    0.051659  -0.000000
    77  H   -0.019354   0.000000
    78  H   -0.003217  -0.000000
    79  H   -0.002088   0.000000
    80  H    0.050172  -0.000000
    81  H    0.058557   0.000000
    82  H    0.047206   0.000000
    83  H   -0.017728   0.000000
    84  H   -0.000807  -0.000000
    85  H    0.000152   0.000000
    86  H    0.045486   0.000000
    87  H    0.039104   0.000000
    88  H    0.024381   0.000000
    89  H   -0.017362   0.000000
    90  H   -0.006370   0.000000
    91  H    0.002163   0.000000
    92  H    0.053045  -0.000000
    93  H    0.050289  -0.000000
    94  H    0.057322  -0.000000
    95  H   -0.021416  -0.000000
    96  H   -0.001988   0.000000
    97  H    0.019504   0.000000
 Sum of Mulliken charges =  -0.00000  -0.00000

 Dipole moment (field-independent basis, Debye):
    X=              7.1075    Y=              5.5144    Z=              2.6201  Tot=              9.3696
 Quadrupole moment (field-independent basis, Debye-Ang):
   XX=           -256.0950   YY=           -360.7852   ZZ=           -398.0616
   XY=             29.4199   XZ=            -73.4520   YZ=              5.5901

 Normal termination of Gaussian 16 at Sat Jul 25 15:38:05 2020.
