 Gaussian 16, Revision A.03,
 Gaussian 16:  EM64L-G16RevA.03 25-Dec-2016

 ---------------------------------------------------------------
 #P uLC-wPBE/cc-pVDZ iop(3/107=0324900000, 3/108=0324900000) opt
 ---------------------------------------------------------------

 ---------------
 H22 C50 N10 F10
 ---------------
 Symbolic Z-matrix:
 Charge =  0 Multiplicity = 1

 SCF Done:  E(ULC-wPBE) =  -3461.96659844     A.U. after   16 cycles
 SCF Done:  E(ULC-wPBE) =  -3462.04865559     A.U. after   13 cycles
 SCF Done:  E(ULC-wPBE) =  -3462.11419363     A.U. after   14 cycles
 SCF Done:  E(ULC-wPBE) =  -3462.13219981     A.U. after   14 cycles
 SCF Done:  E(ULC-wPBE) =  -3462.13673242     A.U. after   14 cycles
 SCF Done:  E(ULC-wPBE) =  -3462.13780914     A.U. after   13 cycles
 SCF Done:  E(ULC-wPBE) =  -3462.13844900     A.U. after   15 cycles
 SCF Done:  E(ULC-wPBE) =  -3462.13870559     A.U. after   12 cycles
 SCF Done:  E(ULC-wPBE) =  -3462.13880464     A.U. after   12 cycles
 SCF Done:  E(ULC-wPBE) =  -3462.13883921     A.U. after   11 cycles
 SCF Done:  E(ULC-wPBE) =  -3462.13885007     A.U. after   11 cycles
 SCF Done:  E(ULC-wPBE) =  -3462.13885193     A.U. after   10 cycles
 SCF Done:  E(ULC-wPBE) =  -3462.13885234     A.U. after    7 cycles
 SCF Done:  E(ULC-wPBE) =  -3462.13885243     A.U. after    7 cycles
 SCF Done:  E(ULC-wPBE) =  -3462.13885255     A.U. after    7 cycles
 Optimization completed.
    -- Stationary point found.

                         Standard orientation:
 ---------------------------------------------------------------------
 Center     Atomic      Atomic             Coordinates (Angstroms)
 Number     Number       Type             X           Y           Z
 ---------------------------------------------------------------------
      1          6           0       20.379886   -0.143224   -0.837313
      2          6           0       19.820723    1.120629   -0.695065
      3          6           0       18.449825    1.194810   -0.515751
      4          9           0       17.860230    2.396276   -0.399202
      5          6           0       17.672571    0.037459   -0.478439
      6          7           0       18.218555   -1.171619   -0.625790
      7          6           0       19.536966   -1.252580   -0.798241
      8          6           0       16.190096    0.099974   -0.311618
      9          7           0       15.443392   -0.553087   -1.203973
     10          6           0       14.121216   -0.538451   -1.063470
     11          6           0       13.447240    0.118174   -0.025532
     12          6           0       14.226629    0.798327    0.910849
     13          6           0       15.600261    0.779810    0.753872
     14          9           0       16.372971    1.399319    1.659704
     15          6           0       11.968124    0.088574    0.070231
     16          6           0       11.235183    1.224386    0.416248
     17          6           0        9.856847    1.126533    0.482887
     18          9           0        9.145454    2.202819    0.837872
     19          6           0        9.217427   -0.082953    0.199761
     20          7           0        9.922156   -1.173070   -0.113381
     21          6           0       11.247701   -1.087113   -0.174450
     22          6           0        7.732609   -0.201105    0.212933
     23          7           0        7.030816    0.742727   -0.419309
     24          6           0        5.705013    0.645420   -0.452534
     25          6           0        4.981031   -0.393257    0.145342
     26          6           0        5.711423   -1.376714    0.813722
     27          6           0        7.090345   -1.270403    0.842871
     28          9           0        7.798102   -2.187697    1.511707
     29          6           0        3.501259   -0.443151    0.070610
     30          6           0        2.822441   -1.639836   -0.162739
     31          6           0        1.440447   -1.615402   -0.218335
     32          9           0        0.780875   -2.750385   -0.477284
     33          6           0        0.744576   -0.416659   -0.041737
     34          7           0        1.396931    0.728343    0.173951
     35          6           0        2.725356    0.711435    0.230594
     36          6           0       -0.744048   -0.370086   -0.063584
     37          7           0       -1.402838   -1.288798    0.647636
     38          6           0       -2.731494   -1.251729    0.671282
     39          6           0       -3.502077   -0.304952   -0.014446
     40          6           0       -2.816718    0.651138   -0.765143
     41          6           0       -1.433862    0.608634   -0.783457
     42          9           0       -0.767279    1.497016   -1.529116
     43          6           0       -4.982674   -0.317775    0.057854
     44          6           0       -5.706715   -1.509709    0.009796
     45          6           0       -7.086987   -1.446533    0.082284
     46          9           0       -7.790732   -2.583956    0.061150
     47          6           0       -7.736627   -0.214383    0.191003
     48          7           0       -7.040212    0.923419    0.254352
     49          6           0       -5.713400    0.869148    0.190609
     50          6           0       -9.222777   -0.116846    0.216491
     51          7           0       -9.904321   -0.812813   -0.696877
     52          6           0      -11.230633   -0.719619   -0.719042
     53          6           0      -11.975457    0.066752    0.168476
     54          6           0      -11.266013    0.788712    1.129045
     55          6           0       -9.886360    0.688876    1.145312
     56          9           0       -9.198579    1.348459    2.084533
     57          6           0      -13.454694    0.125891    0.088589
     58          6           0      -14.146566    1.327859    0.240977
     59          6           0      -15.526106    1.302970    0.150146
     60          9           0      -16.215651    2.442828    0.313352
     61          6           0      -16.206268    0.110034   -0.093798
     62          7           0      -15.543846   -1.040878   -0.223938
     63          6           0      -14.217173   -1.027936   -0.135133
     64          6           0      -17.696146    0.059538   -0.179549
     65          7           0      -18.321803   -0.831573    0.592559
     66          6           0      -19.649452   -0.910718    0.517195
     67          6           0      -20.423461   -0.116307   -0.326920
     68          6           0      -19.781508    0.807692   -1.141999
     69          6           0      -18.401676    0.883228   -1.056370
     70          9           0      -17.734334    1.743667   -1.843019
     71          1           0       21.456567   -0.267438   -0.981317
     72          1           0       20.414806    2.037683   -0.726777
     73          1           0       19.944759   -2.264091   -0.911405
     74          1           0       13.551500   -1.067651   -1.836888
     75          1           0       13.790964    1.315445    1.770266
     76          1           0       11.712189    2.186853    0.621454
     77          1           0       11.778344   -2.015416   -0.417396
     78          1           0        5.180147    1.432641   -1.006795
     79          1           0        5.229440   -2.209120    1.334086
     80          1           0        3.346544   -2.585321   -0.328137
     81          1           0        3.208932    1.673951    0.435755
     82          1           0       -3.220787   -2.013172    1.290806
     83          1           0       -3.335537    1.410339   -1.356703
     84          1           0       -5.221880   -2.483838   -0.097520
     85          1           0       -5.190164    1.830249    0.265460
     86          1           0      -11.738713   -1.291299   -1.504776
     87          1           0      -11.764928    1.406167    1.881229
     88          1           0      -13.636207    2.279161    0.415301
     89          1           0      -13.721207   -2.001456   -0.230576
     90          1           0      -20.123621   -1.652691    1.170578
     91          1           0      -21.511371   -0.223085   -0.348385
     92          1           0      -20.318914    1.457054   -1.838020
 ---------------------------------------------------------------------

 The electronic state is 1-A.
 Alpha  occ. eigenvalues --  -24.48031 -24.48021 -24.47894 -24.47856 -24.47833
 Alpha  occ. eigenvalues --  -24.47822 -24.47820 -24.47802 -24.47738 -24.47718
 Alpha  occ. eigenvalues --  -14.19721 -14.19689 -14.19688 -14.19651 -14.19605
 Alpha  occ. eigenvalues --  -14.19600 -14.19306 -14.19304 -14.18894 -14.18883
 Alpha  occ. eigenvalues --  -10.18577 -10.18559 -10.18535 -10.18525 -10.18492
 Alpha  occ. eigenvalues --  -10.18488 -10.18346 -10.18335 -10.17952 -10.17937
 Alpha  occ. eigenvalues --  -10.14249 -10.14237 -10.14208 -10.14208 -10.14156
 Alpha  occ. eigenvalues --  -10.14155 -10.13896 -10.13890 -10.13614 -10.13606
 Alpha  occ. eigenvalues --  -10.13092 -10.13062 -10.13039 -10.13013 -10.12929
 Alpha  occ. eigenvalues --  -10.12928 -10.12789 -10.12786 -10.12591 -10.12581
 Alpha  occ. eigenvalues --  -10.12566 -10.12553 -10.12475 -10.12472 -10.12372
 Alpha  occ. eigenvalues --  -10.12363 -10.12258 -10.12248 -10.11974 -10.11946
 Alpha  occ. eigenvalues --  -10.11939 -10.11923 -10.11885 -10.11876 -10.11870
 Alpha  occ. eigenvalues --  -10.11859 -10.11415 -10.11403 -10.10768 -10.10756
 Alpha  occ. eigenvalues --   -1.32666  -1.32655  -1.32505  -1.32455  -1.32453
 Alpha  occ. eigenvalues --   -1.32443  -1.32405  -1.32393  -1.32012  -1.31996
 Alpha  occ. eigenvalues --   -1.08713  -1.08581  -1.08479  -1.08172  -1.08163
 Alpha  occ. eigenvalues --   -1.07077  -1.06848  -1.06683  -1.06101  -1.06094
 Alpha  occ. eigenvalues --   -0.97384  -0.97096  -0.96797  -0.96609  -0.93280
 Alpha  occ. eigenvalues --   -0.93269  -0.92968  -0.92678  -0.92522  -0.92511
 Alpha  occ. eigenvalues --   -0.91959  -0.91826  -0.91680  -0.91309  -0.91147
 Alpha  occ. eigenvalues --   -0.89263  -0.88411  -0.87295  -0.86068  -0.85164
 Alpha  occ. eigenvalues --   -0.81781  -0.80570  -0.79199  -0.78491  -0.78213
 Alpha  occ. eigenvalues --   -0.77689  -0.77579  -0.77209  -0.76647  -0.76213
 Alpha  occ. eigenvalues --   -0.75945  -0.75259  -0.75042  -0.74849  -0.74651
 Alpha  occ. eigenvalues --   -0.74444  -0.73711  -0.73055  -0.72617  -0.72454
 Alpha  occ. eigenvalues --   -0.68059  -0.67944  -0.67806  -0.67607  -0.66704
 Alpha  occ. eigenvalues --   -0.66647  -0.66377  -0.65878  -0.65722  -0.65398
 Alpha  occ. eigenvalues --   -0.65055  -0.64762  -0.64607  -0.63855  -0.63830
 Alpha  occ. eigenvalues --   -0.63694  -0.63619  -0.63003  -0.62752  -0.62533
 Alpha  occ. eigenvalues --   -0.62503  -0.62339  -0.62068  -0.61823  -0.61772
 Alpha  occ. eigenvalues --   -0.60774  -0.60336  -0.59781  -0.59155  -0.59128
 Alpha  occ. eigenvalues --   -0.58977  -0.58924  -0.58770  -0.58732  -0.58566
 Alpha  occ. eigenvalues --   -0.58452  -0.58399  -0.58245  -0.58204  -0.58178
 Alpha  occ. eigenvalues --   -0.56353  -0.55705  -0.55034  -0.54622  -0.54291
 Alpha  occ. eigenvalues --   -0.54278  -0.53837  -0.53623  -0.53338  -0.53137
 Alpha  occ. eigenvalues --   -0.53072  -0.52971  -0.52938  -0.52850  -0.52539
 Alpha  occ. eigenvalues --   -0.52488  -0.52413  -0.52283  -0.52172  -0.52116
 Alpha  occ. eigenvalues --   -0.51938  -0.51757  -0.51712  -0.51511  -0.51424
 Alpha  occ. eigenvalues --   -0.51278  -0.50977  -0.50648  -0.50624  -0.50589
 Alpha  occ. eigenvalues --   -0.50481  -0.49847  -0.49435  -0.49190  -0.49022
 Alpha  occ. eigenvalues --   -0.48985  -0.48537  -0.48314  -0.47811  -0.47721
 Alpha  occ. eigenvalues --   -0.47714  -0.43896  -0.43239  -0.42438  -0.41784
 Alpha  occ. eigenvalues --   -0.39938  -0.39916  -0.39296  -0.39195  -0.39074
 Alpha  occ. eigenvalues --   -0.39038  -0.38525  -0.37994  -0.37874  -0.37740
 Alpha  occ. eigenvalues --   -0.37611  -0.37420  -0.37168  -0.37025  -0.36923
 Alpha  occ. eigenvalues --   -0.36704  -0.36650  -0.36389  -0.36348  -0.36258
 Alpha  occ. eigenvalues --   -0.35984  -0.35605  -0.34853  -0.33939  -0.32986
 Alpha  occ. eigenvalues --   -0.32413
 Alpha virt. eigenvalues --   -0.01802  -0.00897   0.00352   0.01717   0.02819
 Alpha virt. eigenvalues --    0.03753   0.03891   0.03995   0.04104   0.04106
 Alpha virt. eigenvalues --    0.04224   0.04364   0.04562   0.04805   0.05601

  Beta  occ. eigenvalues --  -24.48031 -24.48021 -24.47894 -24.47856 -24.47833
  Beta  occ. eigenvalues --  -24.47822 -24.47820 -24.47802 -24.47738 -24.47718
  Beta  occ. eigenvalues --  -14.19721 -14.19689 -14.19688 -14.19651 -14.19605
  Beta  occ. eigenvalues --  -14.19600 -14.19306 -14.19304 -14.18894 -14.18883
  Beta  occ. eigenvalues --  -10.18577 -10.18559 -10.18535 -10.18525 -10.18492
  Beta  occ. eigenvalues --  -10.18488 -10.18346 -10.18335 -10.17952 -10.17937
  Beta  occ. eigenvalues --  -10.14249 -10.14237 -10.14208 -10.14208 -10.14156
  Beta  occ. eigenvalues --  -10.14155 -10.13896 -10.13890 -10.13614 -10.13606
  Beta  occ. eigenvalues --  -10.13092 -10.13062 -10.13039 -10.13013 -10.12929
  Beta  occ. eigenvalues --  -10.12928 -10.12789 -10.12786 -10.12591 -10.12581
  Beta  occ. eigenvalues --  -10.12566 -10.12553 -10.12475 -10.12472 -10.12372
  Beta  occ. eigenvalues --  -10.12363 -10.12258 -10.12248 -10.11974 -10.11946
  Beta  occ. eigenvalues --  -10.11939 -10.11923 -10.11885 -10.11876 -10.11870
  Beta  occ. eigenvalues --  -10.11859 -10.11415 -10.11403 -10.10768 -10.10756
  Beta  occ. eigenvalues --   -1.32666  -1.32655  -1.32505  -1.32455  -1.32453
  Beta  occ. eigenvalues --   -1.32443  -1.32405  -1.32393  -1.32012  -1.31996
  Beta  occ. eigenvalues --   -1.08713  -1.08581  -1.08479  -1.08172  -1.08163
  Beta  occ. eigenvalues --   -1.07077  -1.06848  -1.06683  -1.06101  -1.06094
  Beta  occ. eigenvalues --   -0.97384  -0.97096  -0.96797  -0.96609  -0.93280
  Beta  occ. eigenvalues --   -0.93269  -0.92968  -0.92678  -0.92522  -0.92511
  Beta  occ. eigenvalues --   -0.91959  -0.91826  -0.91680  -0.91309  -0.91147
  Beta  occ. eigenvalues --   -0.89263  -0.88411  -0.87295  -0.86068  -0.85164
  Beta  occ. eigenvalues --   -0.81781  -0.80570  -0.79199  -0.78491  -0.78213
  Beta  occ. eigenvalues --   -0.77689  -0.77579  -0.77209  -0.76647  -0.76213
  Beta  occ. eigenvalues --   -0.75945  -0.75259  -0.75042  -0.74849  -0.74651
  Beta  occ. eigenvalues --   -0.74444  -0.73711  -0.73055  -0.72617  -0.72454
  Beta  occ. eigenvalues --   -0.68059  -0.67944  -0.67806  -0.67607  -0.66704
  Beta  occ. eigenvalues --   -0.66647  -0.66377  -0.65878  -0.65722  -0.65398
  Beta  occ. eigenvalues --   -0.65055  -0.64762  -0.64607  -0.63855  -0.63830
  Beta  occ. eigenvalues --   -0.63694  -0.63619  -0.63003  -0.62752  -0.62533
  Beta  occ. eigenvalues --   -0.62503  -0.62339  -0.62068  -0.61823  -0.61772
  Beta  occ. eigenvalues --   -0.60774  -0.60336  -0.59781  -0.59155  -0.59128
  Beta  occ. eigenvalues --   -0.58977  -0.58924  -0.58770  -0.58732  -0.58566
  Beta  occ. eigenvalues --   -0.58452  -0.58399  -0.58245  -0.58204  -0.58178
  Beta  occ. eigenvalues --   -0.56353  -0.55705  -0.55034  -0.54622  -0.54291
  Beta  occ. eigenvalues --   -0.54278  -0.53837  -0.53623  -0.53338  -0.53137
  Beta  occ. eigenvalues --   -0.53072  -0.52971  -0.52938  -0.52850  -0.52539
  Beta  occ. eigenvalues --   -0.52488  -0.52413  -0.52283  -0.52172  -0.52116
  Beta  occ. eigenvalues --   -0.51938  -0.51757  -0.51712  -0.51511  -0.51424
  Beta  occ. eigenvalues --   -0.51278  -0.50977  -0.50648  -0.50624  -0.50589
  Beta  occ. eigenvalues --   -0.50481  -0.49847  -0.49435  -0.49190  -0.49022
  Beta  occ. eigenvalues --   -0.48985  -0.48537  -0.48314  -0.47811  -0.47721
  Beta  occ. eigenvalues --   -0.47714  -0.43896  -0.43239  -0.42438  -0.41784
  Beta  occ. eigenvalues --   -0.39938  -0.39916  -0.39296  -0.39195  -0.39074
  Beta  occ. eigenvalues --   -0.39038  -0.38525  -0.37994  -0.37874  -0.37740
  Beta  occ. eigenvalues --   -0.37611  -0.37420  -0.37168  -0.37025  -0.36923
  Beta  occ. eigenvalues --   -0.36704  -0.36650  -0.36389  -0.36348  -0.36258
  Beta  occ. eigenvalues --   -0.35984  -0.35605  -0.34853  -0.33939  -0.32986
  Beta  occ. eigenvalues --   -0.32413
  Beta virt. eigenvalues --   -0.01802  -0.00897   0.00352   0.01717   0.02819
  Beta virt. eigenvalues --    0.03753   0.03891   0.03995   0.04104   0.04106
  Beta virt. eigenvalues --    0.04224   0.04364   0.04562   0.04805   0.05601

 Mulliken charges and spin densities:
               1          2
     1  C   -0.033625  -0.000000
     2  C    0.048799   0.000000
     3  C    0.122060  -0.000000
     4  F   -0.120279  -0.000000
     5  C    0.014732   0.000000
     6  N   -0.161390  -0.000000
     7  C    0.078613   0.000000
     8  C    0.024197   0.000000
     9  N   -0.156409   0.000000
    10  C    0.086253  -0.000000
    11  C   -0.061194   0.000000
    12  C    0.058295  -0.000000
    13  C    0.131077  -0.000000
    14  F   -0.116284   0.000000
    15  C   -0.060018   0.000000
    16  C    0.055558  -0.000000
    17  C    0.137938   0.000000
    18  F   -0.106378  -0.000000
    19  C    0.019470  -0.000000
    20  N   -0.166063  -0.000000
    21  C    0.083425  -0.000000
    22  C    0.019816  -0.000000
    23  N   -0.165603   0.000000
    24  C    0.083395  -0.000000
    25  C   -0.059223  -0.000000
    26  C    0.055028   0.000000
    27  C    0.137736   0.000000
    28  F   -0.105623   0.000000
    29  C   -0.059057   0.000000
    30  C    0.055334   0.000000
    31  C    0.137832   0.000000
    32  F   -0.106342   0.000000
    33  C    0.019918   0.000000
    34  N   -0.165983   0.000000
    35  C    0.083516  -0.000000
    36  C    0.019862  -0.000000
    37  N   -0.166321  -0.000000
    38  C    0.082680   0.000000
    39  C   -0.057410  -0.000000
    40  C    0.055892  -0.000000
    41  C    0.138183   0.000000
    42  F   -0.105639  -0.000000
    43  C   -0.059633  -0.000000
    44  C    0.055320   0.000000
    45  C    0.138595  -0.000000
    46  F   -0.105355   0.000000
    47  C    0.019400   0.000000
    48  N   -0.165803   0.000000
    49  C    0.082409   0.000000
    50  C    0.019378  -0.000000
    51  N   -0.165925   0.000000
    52  C    0.083931   0.000000
    53  C   -0.057793   0.000000
    54  C    0.055072  -0.000000
    55  C    0.137466  -0.000000
    56  F   -0.106190   0.000000
    57  C   -0.063737  -0.000000
    58  C    0.059621   0.000000
    59  C    0.131818  -0.000000
    60  F   -0.116194   0.000000
    61  C    0.023530   0.000000
    62  N   -0.156099   0.000000
    63  C    0.085247   0.000000
    64  C    0.014204  -0.000000
    65  N   -0.161140   0.000000
    66  C    0.078508  -0.000000
    67  C   -0.033709   0.000000
    68  C    0.048722  -0.000000
    69  C    0.122055   0.000000
    70  F   -0.119924  -0.000000
    71  H    0.013391   0.000000
    72  H    0.023279   0.000000
    73  H    0.018964   0.000000
    74  H    0.017958  -0.000000
    75  H    0.014763  -0.000000
    76  H    0.015153   0.000000
    77  H    0.019189  -0.000000
    78  H    0.018017   0.000000
    79  H    0.015631   0.000000
    80  H    0.015888   0.000000
    81  H    0.018100  -0.000000
    82  H    0.015420   0.000000
    83  H    0.017646  -0.000000
    84  H    0.017723  -0.000000
    85  H    0.016170  -0.000000
    86  H    0.018058   0.000000
    87  H    0.015068   0.000000
    88  H    0.015347  -0.000000
    89  H    0.018131  -0.000000
    90  H    0.018884   0.000000
    91  H    0.013342   0.000000
    92  H    0.023334   0.000000
 Sum of Mulliken charges =  -0.00000   0.00000

 Dipole moment (field-independent basis, Debye):
    X=              0.1045    Y=              1.5990    Z=              0.3647  Tot=              1.6434
 Quadrupole moment (field-independent basis, Debye-Ang):
   XX=           -234.9333   YY=           -385.3382   ZZ=           -386.0399
   XY=             -0.8357   XZ=             11.5986   YZ=             -0.3721

 Normal termination of Gaussian 16 at Sat Jul 25 15:41:03 2020.
