 Gaussian 16, Revision A.03,
 Gaussian 16:  EM64L-G16RevA.03 25-Dec-2016

 ---------------------------------------------------------------
 #P uLC-wPBE/cc-pVDZ iop(3/107=0480700000, 3/108=0480700000) opt
 ---------------------------------------------------------------

 ----------
 H52 C65 O5
 ----------
 Symbolic Z-matrix:
 Charge =  0 Multiplicity = 1

 SCF Done:  E(ULC-wPBE) =  -2882.29410964     A.U. after   15 cycles
 SCF Done:  E(ULC-wPBE) =  -2882.38466727     A.U. after   13 cycles
 SCF Done:  E(ULC-wPBE) =  -2882.47087347     A.U. after   16 cycles
 SCF Done:  E(ULC-wPBE) =  -2882.49613421     A.U. after   14 cycles
 SCF Done:  E(ULC-wPBE) =  -2882.50292554     A.U. after   15 cycles
 SCF Done:  E(ULC-wPBE) =  -2882.50459936     A.U. after   14 cycles
 SCF Done:  E(ULC-wPBE) =  -2882.50538186     A.U. after   14 cycles
 SCF Done:  E(ULC-wPBE) =  -2882.50612787     A.U. after   14 cycles
 SCF Done:  E(ULC-wPBE) =  -2882.50255311     A.U. after   18 cycles
 SCF Done:  E(ULC-wPBE) =  -2882.50661326     A.U. after   13 cycles
 SCF Done:  E(ULC-wPBE) =  -2882.50694372     A.U. after   11 cycles
 SCF Done:  E(ULC-wPBE) =  -2882.50700890     A.U. after   11 cycles
 SCF Done:  E(ULC-wPBE) =  -2882.50702500     A.U. after   11 cycles
 SCF Done:  E(ULC-wPBE) =  -2882.50703047     A.U. after   10 cycles
 SCF Done:  E(ULC-wPBE) =  -2882.50703187     A.U. after   10 cycles
 SCF Done:  E(ULC-wPBE) =  -2882.50703190     A.U. after    7 cycles
 Optimization completed.
    -- Stationary point found.

                         Standard orientation:
 ---------------------------------------------------------------------
 Center     Atomic      Atomic             Coordinates (Angstroms)
 Number     Number       Type             X           Y           Z
 ---------------------------------------------------------------------
      1          6           0      -20.920123   -0.463455    0.014149
      2          6           0      -20.264967    0.392874   -0.857703
      3          6           0      -18.883645    0.469058   -0.856910
      4          6           0      -18.129501   -0.315693    0.011810
      5          6           0      -18.797566   -1.169967    0.883357
      6          6           0      -20.181241   -1.244047    0.886553
      7          6           0      -16.646142   -0.292456   -0.006282
      8          6           0      -15.932511   -1.479011   -0.060680
      9          6           0      -14.546768   -1.507325   -0.064174
     10          6           0      -13.831817   -0.321182   -0.011923
     11          6           0      -14.531674    0.883215    0.045508
     12          6           0      -15.917631    0.905267    0.047829
     13          8           0      -16.640135    2.045261    0.118276
     14          6           0      -15.959993    3.264642    0.235046
     15          6           0      -12.350233   -0.321480   -0.019213
     16          6           0      -11.632001   -1.244111    0.737119
     17          6           0      -10.250286   -1.252099    0.730525
     18          6           0       -9.533912   -0.332332   -0.030508
     19          6           0      -10.251310    0.587053   -0.788550
     20          6           0      -11.635256    0.593529   -0.783712
     21          6           0       -8.052062   -0.284411   -0.014754
     22          6           0       -7.397249    0.923670    0.165716
     23          6           0       -6.014838    1.020624    0.169523
     24          6           0       -5.242417   -0.115891   -0.011758
     25          6           0       -5.882285   -1.340629   -0.196157
     26          6           0       -7.265451   -1.431727   -0.197817
     27          8           0       -7.930840   -2.592335   -0.388523
     28          6           0       -7.192113   -3.756416   -0.639630
     29          6           0       -3.762713   -0.041591   -0.009617
     30          6           0       -2.995730   -0.996517    0.648150
     31          6           0       -1.613818   -0.920445    0.647880
     32          6           0       -0.950568    0.110632   -0.009021
     33          6           0       -1.719249    1.069861   -0.662751
     34          6           0       -3.098784    0.992667   -0.664375
     35          6           0        0.531580    0.139898   -0.036923
     36          6           0        1.244008   -1.006893   -0.350163
     37          6           0        2.629420   -1.032038   -0.372662
     38          6           0        3.345840    0.116514   -0.074792
     39          6           0        2.647532    1.280046    0.244509
     40          6           0        1.261678    1.299546    0.264343
     41          8           0        0.541090    2.397421    0.583324
     42          6           0        1.223498    3.564507    0.952101
     43          6           0        4.827277    0.119103   -0.094496
     44          6           0        5.537362    1.180255   -0.650329
     45          6           0        6.919064    1.184104   -0.668352
     46          6           0        7.643204    0.121722   -0.134438
     47          6           0        6.933787   -0.937072    0.422822
     48          6           0        5.550077   -0.939934    0.442810
     49          6           0        9.124199    0.074606   -0.189322
     50          6           0        9.766824   -1.069574   -0.635226
     51          6           0       11.148160   -1.167120   -0.688395
     52          6           0       11.931853   -0.096724   -0.287018
     53          6           0       11.304475    1.062672    0.166409
     54          6           0        9.922313    1.154869    0.216401
     55          8           0        9.269248    2.250675    0.663268
     56          6           0       10.022061    3.334278    1.135346
     57          6           0       13.410740   -0.172027   -0.337240
     58          6           0       14.169383    0.897707   -0.798331
     59          6           0       15.550483    0.820082   -0.846633
     60          6           0       16.220457   -0.325810   -0.432375
     61          6           0       15.460903   -1.394480    0.035439
     62          6           0       14.081822   -1.319713    0.077015
     63          6           0       17.698338   -0.401312   -0.539669
     64          6           0       18.324890   -0.038387   -1.721945
     65          6           0       19.704665   -0.078327   -1.863547
     66          6           0       20.476167   -0.489242   -0.795910
     67          6           0       19.879511   -0.857876    0.401932
     68          6           0       18.498897   -0.817907    0.535083
     69          8           0       17.850407   -1.155651    1.671763
     70          6           0       18.609081   -1.522499    2.791264
     71          1           0      -22.006938   -0.519805    0.013828
     72          1           0      -20.837478    1.008616   -1.548937
     73          1           0      -18.376428    1.144054   -1.541101
     74          1           0      -18.221635   -1.776431    1.580442
     75          1           0      -20.684374   -1.914867    1.580397
     76          1           0      -16.487089   -2.413623   -0.124025
     77          1           0      -14.022644   -2.457336   -0.137508
     78          1           0      -13.969373    1.809277    0.117274
     79          1           0      -15.324760    3.461680   -0.639371
     80          1           0      -15.343123    3.298554    1.143145
     81          1           0      -16.728108    4.038719    0.297852
     82          1           0      -12.168439   -1.956485    1.361241
     83          1           0       -9.713476   -1.978724    1.334224
     84          1           0       -9.713975    1.298759   -1.413017
     85          1           0      -12.170059    1.306505   -1.408726
     86          1           0       -7.996487    1.817397    0.330667
     87          1           0       -5.537742    1.982215    0.343538
     88          1           0       -5.275526   -2.224437   -0.368241
     89          1           0       -6.540868   -4.015343    0.206339
     90          1           0       -7.921549   -4.556429   -0.784469
     91          1           0       -6.582022   -3.660096   -1.547761
     92          1           0       -3.488134   -1.799195    1.194268
     93          1           0       -1.035644   -1.667461    1.189065
     94          1           0       -1.225188    1.883648   -1.186432
     95          1           0       -3.676059    1.740152   -1.205485
     96          1           0        0.688572   -1.907170   -0.607122
     97          1           0        3.152074   -1.943781   -0.652206
     98          1           0        3.211304    2.170023    0.507113
     99          1           0        1.848332    3.403816    1.840901
    100          1           0        1.851002    3.944417    0.134338
    101          1           0        0.456669    4.306411    1.185880
    102          1           0        4.995077    2.009714   -1.100955
    103          1           0        7.449435    2.021046   -1.114222
    104          1           0        7.477804   -1.767588    0.869420
    105          1           0        5.021284   -1.769838    0.907864
    106          1           0        9.158246   -1.906390   -0.973417
    107          1           0       11.614785   -2.071412   -1.071937
    108          1           0       11.920980    1.888027    0.509281
    109          1           0       10.649661    3.048981    1.990285
    110          1           0       10.658181    3.761499    0.348182
    111          1           0        9.302139    4.089265    1.459159
    112          1           0       13.670888    1.801590   -1.144013
    113          1           0       16.123398    1.672194   -1.208469
    114          1           0       15.961686   -2.296956    0.375251
    115          1           0       13.510978   -2.164751    0.457560
    116          1           0       17.704612    0.271160   -2.561397
    117          1           0       20.166773    0.205991   -2.805818
    118          1           0       21.560116   -0.529673   -0.883676
    119          1           0       20.504598   -1.173926    1.231457
    120          1           0       17.894785   -1.725257    3.592400
    121          1           0       19.280541   -0.712800    3.107529
    122          1           0       19.200869   -2.428628    2.602529
 ---------------------------------------------------------------------

 The electronic state is 1-A.
 Alpha  occ. eigenvalues --  -19.05468 -19.05411 -19.05303 -19.05207 -19.05038
 Alpha  occ. eigenvalues --  -10.23028 -10.22965 -10.22877 -10.22789 -10.22607
 Alpha  occ. eigenvalues --  -10.21997 -10.21923 -10.21804 -10.21703 -10.21576
 Alpha  occ. eigenvalues --  -10.17850 -10.17766 -10.17682 -10.17515 -10.17429
 Alpha  occ. eigenvalues --  -10.17404 -10.17343 -10.17308 -10.17266 -10.17258
 Alpha  occ. eigenvalues --  -10.17233 -10.17157 -10.17113 -10.17085 -10.17073
 Alpha  occ. eigenvalues --  -10.17006 -10.16918 -10.16917 -10.16876 -10.16794
 Alpha  occ. eigenvalues --  -10.16731 -10.16715 -10.16644 -10.16532 -10.16508
 Alpha  occ. eigenvalues --  -10.16459 -10.16449 -10.16363 -10.16349 -10.16334
 Alpha  occ. eigenvalues --  -10.16319 -10.16312 -10.16297 -10.16283 -10.16250
 Alpha  occ. eigenvalues --  -10.16221 -10.16207 -10.16187 -10.16180 -10.16172
 Alpha  occ. eigenvalues --  -10.16128 -10.16079 -10.16062 -10.16000 -10.15971
 Alpha  occ. eigenvalues --  -10.15971 -10.15936 -10.15886 -10.15846 -10.15831
 Alpha  occ. eigenvalues --  -10.15805 -10.15736 -10.15669 -10.15649 -10.15483
 Alpha  occ. eigenvalues --   -1.25273  -1.25204  -1.25104  -1.25009  -1.24846
 Alpha  occ. eigenvalues --   -1.07026  -1.06818  -1.06545  -1.06181  -1.05617
 Alpha  occ. eigenvalues --   -1.05185  -1.04582  -1.03932  -1.03319  -1.02850
 Alpha  occ. eigenvalues --   -0.99157  -0.98299  -0.97188  -0.95933  -0.94714
 Alpha  occ. eigenvalues --   -0.93563  -0.93469  -0.93342  -0.93247  -0.93070
 Alpha  occ. eigenvalues --   -0.92787  -0.92440  -0.92251  -0.92153  -0.92009
 Alpha  occ. eigenvalues --   -0.91735  -0.91341  -0.90122  -0.89200  -0.88692
 Alpha  occ. eigenvalues --   -0.87341  -0.87172  -0.86811  -0.86224  -0.85393
 Alpha  occ. eigenvalues --   -0.81669  -0.80392  -0.79034  -0.78438  -0.78281
 Alpha  occ. eigenvalues --   -0.77920  -0.77332  -0.77094  -0.76574  -0.76087
 Alpha  occ. eigenvalues --   -0.75826  -0.75173  -0.74690  -0.74470  -0.74186
 Alpha  occ. eigenvalues --   -0.74042  -0.73523  -0.73165  -0.72876  -0.72641
 Alpha  occ. eigenvalues --   -0.69835  -0.69621  -0.69338  -0.68975  -0.68602
 Alpha  occ. eigenvalues --   -0.66638  -0.65907  -0.65249  -0.65139  -0.64745
 Alpha  occ. eigenvalues --   -0.64692  -0.64268  -0.63956  -0.63436  -0.63261
 Alpha  occ. eigenvalues --   -0.62824  -0.62782  -0.62655  -0.62555  -0.62460
 Alpha  occ. eigenvalues --   -0.62092  -0.61971  -0.61589  -0.61027  -0.60599
 Alpha  occ. eigenvalues --   -0.59901  -0.59817  -0.59765  -0.59606  -0.59503
 Alpha  occ. eigenvalues --   -0.58836  -0.58594  -0.58405  -0.58197  -0.58000
 Alpha  occ. eigenvalues --   -0.57925  -0.57744  -0.57672  -0.57445  -0.57244
 Alpha  occ. eigenvalues --   -0.56170  -0.55896  -0.55805  -0.55632  -0.55574
 Alpha  occ. eigenvalues --   -0.55435  -0.55200  -0.55119  -0.54932  -0.54852
 Alpha  occ. eigenvalues --   -0.54651  -0.54056  -0.53632  -0.53014  -0.52861
 Alpha  occ. eigenvalues --   -0.52723  -0.52542  -0.52397  -0.52194  -0.51785
 Alpha  occ. eigenvalues --   -0.51517  -0.51164  -0.50707  -0.50631  -0.50404
 Alpha  occ. eigenvalues --   -0.50065  -0.49357  -0.49072  -0.49031  -0.48829
 Alpha  occ. eigenvalues --   -0.48669  -0.48477  -0.48451  -0.48214  -0.48080
 Alpha  occ. eigenvalues --   -0.47479  -0.46762  -0.46617  -0.46566  -0.46500
 Alpha  occ. eigenvalues --   -0.46103  -0.46027  -0.45796  -0.45562  -0.45431
 Alpha  occ. eigenvalues --   -0.45333  -0.45238  -0.44966  -0.44575  -0.44241
 Alpha  occ. eigenvalues --   -0.43998  -0.40687  -0.40033  -0.39099  -0.37986
 Alpha  occ. eigenvalues --   -0.36874  -0.36456  -0.36385  -0.36302  -0.36195
 Alpha  occ. eigenvalues --   -0.35834  -0.35531  -0.34872  -0.34616  -0.34492
 Alpha  occ. eigenvalues --   -0.34332  -0.33079  -0.32394  -0.31424  -0.30493
 Alpha  occ. eigenvalues --   -0.29847
 Alpha virt. eigenvalues --    0.02876   0.03702   0.04926   0.06423   0.08056
 Alpha virt. eigenvalues --    0.08454   0.08538   0.08610   0.08718   0.09173
 Alpha virt. eigenvalues --    0.09260   0.09325   0.09366   0.09464   0.09682

  Beta  occ. eigenvalues --  -19.05468 -19.05411 -19.05303 -19.05207 -19.05038
  Beta  occ. eigenvalues --  -10.23028 -10.22965 -10.22877 -10.22789 -10.22607
  Beta  occ. eigenvalues --  -10.21997 -10.21923 -10.21804 -10.21703 -10.21576
  Beta  occ. eigenvalues --  -10.17850 -10.17766 -10.17682 -10.17515 -10.17429
  Beta  occ. eigenvalues --  -10.17404 -10.17343 -10.17308 -10.17266 -10.17258
  Beta  occ. eigenvalues --  -10.17233 -10.17157 -10.17113 -10.17085 -10.17073
  Beta  occ. eigenvalues --  -10.17006 -10.16918 -10.16917 -10.16876 -10.16794
  Beta  occ. eigenvalues --  -10.16731 -10.16715 -10.16644 -10.16532 -10.16508
  Beta  occ. eigenvalues --  -10.16459 -10.16449 -10.16363 -10.16349 -10.16334
  Beta  occ. eigenvalues --  -10.16319 -10.16312 -10.16297 -10.16283 -10.16250
  Beta  occ. eigenvalues --  -10.16221 -10.16207 -10.16187 -10.16180 -10.16172
  Beta  occ. eigenvalues --  -10.16128 -10.16079 -10.16062 -10.16000 -10.15971
  Beta  occ. eigenvalues --  -10.15971 -10.15936 -10.15886 -10.15846 -10.15831
  Beta  occ. eigenvalues --  -10.15805 -10.15736 -10.15669 -10.15649 -10.15483
  Beta  occ. eigenvalues --   -1.25273  -1.25204  -1.25104  -1.25009  -1.24846
  Beta  occ. eigenvalues --   -1.07026  -1.06818  -1.06545  -1.06181  -1.05617
  Beta  occ. eigenvalues --   -1.05185  -1.04582  -1.03932  -1.03319  -1.02850
  Beta  occ. eigenvalues --   -0.99157  -0.98299  -0.97188  -0.95933  -0.94714
  Beta  occ. eigenvalues --   -0.93563  -0.93469  -0.93342  -0.93247  -0.93070
  Beta  occ. eigenvalues --   -0.92787  -0.92440  -0.92251  -0.92153  -0.92009
  Beta  occ. eigenvalues --   -0.91735  -0.91341  -0.90122  -0.89200  -0.88692
  Beta  occ. eigenvalues --   -0.87341  -0.87172  -0.86811  -0.86224  -0.85393
  Beta  occ. eigenvalues --   -0.81669  -0.80392  -0.79034  -0.78438  -0.78281
  Beta  occ. eigenvalues --   -0.77920  -0.77332  -0.77094  -0.76574  -0.76087
  Beta  occ. eigenvalues --   -0.75826  -0.75173  -0.74690  -0.74470  -0.74186
  Beta  occ. eigenvalues --   -0.74042  -0.73523  -0.73165  -0.72876  -0.72641
  Beta  occ. eigenvalues --   -0.69835  -0.69621  -0.69338  -0.68975  -0.68602
  Beta  occ. eigenvalues --   -0.66638  -0.65907  -0.65249  -0.65139  -0.64745
  Beta  occ. eigenvalues --   -0.64692  -0.64268  -0.63956  -0.63436  -0.63261
  Beta  occ. eigenvalues --   -0.62824  -0.62782  -0.62655  -0.62555  -0.62460
  Beta  occ. eigenvalues --   -0.62092  -0.61971  -0.61589  -0.61027  -0.60599
  Beta  occ. eigenvalues --   -0.59901  -0.59817  -0.59765  -0.59606  -0.59503
  Beta  occ. eigenvalues --   -0.58836  -0.58594  -0.58405  -0.58197  -0.58000
  Beta  occ. eigenvalues --   -0.57925  -0.57744  -0.57672  -0.57445  -0.57244
  Beta  occ. eigenvalues --   -0.56170  -0.55896  -0.55805  -0.55632  -0.55574
  Beta  occ. eigenvalues --   -0.55435  -0.55200  -0.55119  -0.54932  -0.54852
  Beta  occ. eigenvalues --   -0.54651  -0.54056  -0.53632  -0.53014  -0.52861
  Beta  occ. eigenvalues --   -0.52723  -0.52542  -0.52397  -0.52194  -0.51785
  Beta  occ. eigenvalues --   -0.51517  -0.51164  -0.50707  -0.50631  -0.50404
  Beta  occ. eigenvalues --   -0.50065  -0.49357  -0.49072  -0.49031  -0.48829
  Beta  occ. eigenvalues --   -0.48669  -0.48477  -0.48451  -0.48214  -0.48080
  Beta  occ. eigenvalues --   -0.47479  -0.46762  -0.46617  -0.46566  -0.46500
  Beta  occ. eigenvalues --   -0.46103  -0.46027  -0.45796  -0.45562  -0.45431
  Beta  occ. eigenvalues --   -0.45333  -0.45238  -0.44966  -0.44575  -0.44241
  Beta  occ. eigenvalues --   -0.43998  -0.40687  -0.40033  -0.39099  -0.37986
  Beta  occ. eigenvalues --   -0.36874  -0.36456  -0.36385  -0.36302  -0.36195
  Beta  occ. eigenvalues --   -0.35834  -0.35531  -0.34872  -0.34616  -0.34492
  Beta  occ. eigenvalues --   -0.34332  -0.33079  -0.32394  -0.31424  -0.30493
  Beta  occ. eigenvalues --   -0.29847
  Beta virt. eigenvalues --    0.02876   0.03702   0.04926   0.06423   0.08056
  Beta virt. eigenvalues --    0.08454   0.08538   0.08610   0.08718   0.09173
  Beta virt. eigenvalues --    0.09260   0.09325   0.09366   0.09464   0.09682

 Mulliken charges and spin densities:
               1          2
     1  C   -0.016710  -0.000000
     2  C   -0.006835   0.000000
     3  C    0.016244   0.000000
     4  C   -0.012158   0.000000
     5  C   -0.016235   0.000000
     6  C   -0.004664  -0.000000
     7  C   -0.049717   0.000000
     8  C    0.018406   0.000000
     9  C   -0.017848   0.000000
    10  C   -0.006335   0.000000
    11  C   -0.056100  -0.000000
    12  C    0.123717  -0.000000
    13  O   -0.261476   0.000000
    14  C    0.034886  -0.000000
    15  C   -0.013894  -0.000000
    16  C   -0.010157   0.000000
    17  C    0.030444   0.000000
    18  C   -0.005040  -0.000000
    19  C   -0.003011   0.000000
    20  C   -0.011819  -0.000000
    21  C   -0.050684   0.000000
    22  C    0.016121   0.000000
    23  C   -0.017371  -0.000000
    24  C   -0.005949   0.000000
    25  C   -0.055140  -0.000000
    26  C    0.123164   0.000000
    27  O   -0.262379   0.000000
    28  C    0.034764  -0.000000
    29  C   -0.013928   0.000000
    30  C   -0.011960  -0.000000
    31  C   -0.002977  -0.000000
    32  C   -0.004904   0.000000
    33  C    0.030619  -0.000000
    34  C   -0.010214  -0.000000
    35  C   -0.050681  -0.000000
    36  C    0.016156  -0.000000
    37  C   -0.017148   0.000000
    38  C   -0.005981   0.000000
    39  C   -0.055316  -0.000000
    40  C    0.123033   0.000000
    41  O   -0.262508  -0.000000
    42  C    0.034768   0.000000
    43  C   -0.014045  -0.000000
    44  C   -0.012961   0.000000
    45  C    0.030683  -0.000000
    46  C   -0.004943   0.000000
    47  C   -0.003086  -0.000000
    48  C   -0.008946   0.000000
    49  C   -0.050812   0.000000
    50  C    0.016103  -0.000000
    51  C   -0.016646  -0.000000
    52  C   -0.006097   0.000000
    53  C   -0.055137  -0.000000
    54  C    0.122686  -0.000000
    55  O   -0.262991   0.000000
    56  C    0.034916   0.000000
    57  C   -0.016840  -0.000000
    58  C   -0.011284   0.000000
    59  C   -0.000230   0.000000
    60  C   -0.007186   0.000000
    61  C    0.033508   0.000000
    62  C   -0.009888  -0.000000
    63  C   -0.059165  -0.000000
    64  C    0.004546   0.000000
    65  C   -0.009097   0.000000
    66  C   -0.001692  -0.000000
    67  C   -0.066671   0.000000
    68  C    0.112991  -0.000000
    69  O   -0.260826   0.000000
    70  C    0.032277  -0.000000
    71  H    0.012455  -0.000000
    72  H    0.013077   0.000000
    73  H    0.004875  -0.000000
    74  H    0.007416  -0.000000
    75  H    0.013684  -0.000000
    76  H    0.009031  -0.000000
    77  H    0.004589  -0.000000
    78  H    0.010608  -0.000000
    79  H    0.051584  -0.000000
    80  H    0.056795   0.000000
    81  H    0.068151   0.000000
    82  H    0.007846   0.000000
    83  H    0.005783  -0.000000
    84  H    0.008069   0.000000
    85  H    0.006312   0.000000
    86  H    0.008153   0.000000
    87  H    0.004657  -0.000000
    88  H    0.011145  -0.000000
    89  H    0.052039  -0.000000
    90  H    0.068510   0.000000
    91  H    0.057335   0.000000
    92  H    0.006462   0.000000
    93  H    0.008322  -0.000000
    94  H    0.005893   0.000000
    95  H    0.007822   0.000000
    96  H    0.008424   0.000000
    97  H    0.004325   0.000000
    98  H    0.011930  -0.000000
    99  H    0.057318  -0.000000
   100  H    0.052085   0.000000
   101  H    0.068286  -0.000000
   102  H    0.005842   0.000000
   103  H    0.005363   0.000000
   104  H    0.008880   0.000000
   105  H    0.008478  -0.000000
   106  H    0.009699  -0.000000
   107  H    0.005196  -0.000000
   108  H    0.011774  -0.000000
   109  H    0.057551  -0.000000
   110  H    0.052351  -0.000000
   111  H    0.067358   0.000000
   112  H    0.006434   0.000000
   113  H    0.008386   0.000000
   114  H    0.006372  -0.000000
   115  H    0.008333   0.000000
   116  H    0.010440  -0.000000
   117  H    0.011684  -0.000000
   118  H    0.015480   0.000000
   119  H    0.017607   0.000000
   120  H    0.069460   0.000000
   121  H    0.054549   0.000000
   122  H    0.053434   0.000000
 Sum of Mulliken charges =  -0.00000  -0.00000

 Dipole moment (field-independent basis, Debye):
    X=              6.0990    Y=              1.8683    Z=              1.8042  Tot=              6.6290
 Quadrupole moment (field-independent basis, Debye-Ang):
   XX=           -348.3040   YY=           -348.0821   ZZ=           -400.2082
   XY=             -5.4150   XZ=             28.4900   YZ=             -8.8270

 Normal termination of Gaussian 16 at Sat Jul 25 15:29:12 2020.
