 Gaussian 16, Revision A.03,
 Gaussian 16:  EM64L-G16RevA.03 25-Dec-2016

 ---------------------------------------------------------------
 #P uLC-wPBE/cc-pVDZ iop(3/107=0062500000, 3/108=0062500000) opt
 ---------------------------------------------------------------

 --------------
 H17 C35 S10 N5
 --------------
 Symbolic Z-matrix:
 Charge =  0 Multiplicity = 1

 SCF Done:  E(ULC-wPBE) =  -5596.55320610     A.U. after   17 cycles
 SCF Done:  E(ULC-wPBE) =  -5596.61862119     A.U. after   15 cycles
 SCF Done:  E(ULC-wPBE) =  -5596.66641037     A.U. after   15 cycles
 SCF Done:  E(ULC-wPBE) =  -5596.66841692     A.U. after   14 cycles
 SCF Done:  E(ULC-wPBE) =  -5596.66855437     A.U. after   13 cycles
 SCF Done:  E(ULC-wPBE) =  -5596.66881076     A.U. after   12 cycles
 SCF Done:  E(ULC-wPBE) =  -5596.66882681     A.U. after   11 cycles
 SCF Done:  E(ULC-wPBE) =  -5596.66883312     A.U. after   11 cycles
 SCF Done:  E(ULC-wPBE) =  -5596.66883436     A.U. after    8 cycles
 SCF Done:  E(ULC-wPBE) =  -5596.66883462     A.U. after   10 cycles
 SCF Done:  E(ULC-wPBE) =  -5596.66883491     A.U. after    8 cycles
 SCF Done:  E(ULC-wPBE) =  -5596.66883493     A.U. after    7 cycles
 SCF Done:  E(ULC-wPBE) =  -5596.66883502     A.U. after    6 cycles
 SCF Done:  E(ULC-wPBE) =  -5596.66883502     A.U. after    6 cycles
 SCF Done:  E(ULC-wPBE) =  -5596.66883510     A.U. after    6 cycles
 SCF Done:  E(ULC-wPBE) =  -5596.66883509     A.U. after    6 cycles
 SCF Done:  E(ULC-wPBE) =  -5596.66883507     A.U. after    7 cycles
 SCF Done:  E(ULC-wPBE) =  -5596.66883498     A.U. after    7 cycles
 SCF Done:  E(ULC-wPBE) =  -5596.66883501     A.U. after    6 cycles
 SCF Done:  E(ULC-wPBE) =  -5596.66883502     A.U. after    6 cycles
 Optimization completed.
    -- Stationary point found.

                         Standard orientation:
 ---------------------------------------------------------------------
 Center     Atomic      Atomic             Coordinates (Angstroms)
 Number     Number       Type             X           Y           Z
 ---------------------------------------------------------------------
      1          6           0      -18.363479   -1.462584    0.000115
      2          6           0      -18.305607   -0.080754    0.000224
      3          6           0      -16.970263    0.409483    0.000198
      4          6           0      -16.018306   -0.606187    0.000073
      5         16           0      -16.786437   -2.186431   -0.000016
      6          6           0      -14.575297   -0.532543    0.000009
      7          7           0      -13.778236   -1.589795   -0.000123
      8          6           0      -12.467466   -1.218245   -0.000161
      9          6           0      -12.190803    0.148342   -0.000063
     10         16           0      -13.718009    1.023577    0.000102
     11          6           0      -10.919771    0.831297   -0.000078
     12          6           0      -10.653635    2.202111   -0.000097
     13          6           0       -9.275668    2.515629   -0.000125
     14          6           0       -8.455120    1.388630   -0.000125
     15         16           0       -9.413694   -0.082667   -0.000102
     16          6           0       -7.010788    1.381243   -0.000146
     17          7           0       -6.277360    2.486341   -0.000486
     18          6           0       -4.949377    2.192268   -0.000397
     19          6           0       -4.589245    0.843538    0.000011
     20         16           0       -6.060693   -0.120466    0.000336
     21          6           0       -3.277537    0.242074    0.000204
     22          6           0       -2.938453   -1.113219    0.000713
     23          6           0       -1.543708   -1.345186    0.000759
     24          6           0       -0.791591   -0.171847    0.000284
     25         16           0       -1.831117    1.245154   -0.000221
     26          6           0        0.636135    0.022399    0.000169
     27          7           0        1.219540    1.212701   -0.000261
     28          6           0        2.575707    1.095473   -0.000235
     29          6           0        3.106217   -0.194957    0.000217
     30         16           0        1.772307   -1.343821    0.000611
     31          6           0        4.484913   -0.621992    0.000348
     32          6           0        4.996210   -1.921918    0.001510
     33          6           0        6.409411   -1.971839    0.001289
     34          6           0        7.003439   -0.711185   -0.000041
     35         16           0        5.789691    0.559534   -0.001106
     36          6           0        8.394351   -0.333789   -0.000641
     37          7           0        8.818760    0.921672   -0.002306
     38          6           0       10.179045    0.980809   -0.002591
     39          6           0       10.871775   -0.229997   -0.001127
     40         16           0        9.697714   -1.541469    0.000858
     41          6           0       12.294693   -0.475756   -0.001108
     42          6           0       12.969846   -1.697665   -0.002668
     43          6           0       14.378722   -1.562959   -0.002270
     44          6           0       14.803134   -0.237279   -0.000392
     45         16           0       13.435975    0.864377    0.001059
     46          6           0       16.136695    0.320939    0.000523
     47          7           0       16.390399    1.619053    0.002249
     48          6           0       17.741329    1.854099    0.002762
     49          6           0       18.556522    0.741314    0.001451
     50         16           0       17.589401   -0.702478   -0.000568
     51          1           0      -19.251955   -2.103656    0.000109
     52          1           0      -19.195206    0.561363    0.000315
     53          1           0      -16.707190    1.475493    0.000271
     54          1           0      -11.690821   -1.995583   -0.000274
     55          1           0      -11.451736    2.955852   -0.000094
     56          1           0       -8.855416    3.527874   -0.000148
     57          1           0       -4.219139    3.013533   -0.000667
     58          1           0       -3.690352   -1.912928    0.001053
     59          1           0       -1.090554   -2.345024    0.001133
     60          1           0        3.192235    2.004976   -0.000514
     61          1           0        4.354172   -2.812269    0.002534
     62          1           0        6.988030   -2.904675    0.002075
     63          1           0       10.672797    1.962355   -0.004116
     64          1           0       12.449224   -2.664065   -0.004233
     65          1           0       15.073687   -2.412697   -0.003431
     66          1           0       18.105863    2.889721    0.004157
     67          1           0       19.650195    0.686521    0.001553
 ---------------------------------------------------------------------

 The electronic state is 1-A.
 Alpha  occ. eigenvalues --  -88.15263 -88.15196 -88.15174 -88.15151 -88.15136
 Alpha  occ. eigenvalues --  -88.15090 -88.14892 -88.14873 -88.14803 -88.14638
 Alpha  occ. eigenvalues --  -14.04774 -14.04753 -14.04688 -14.04656 -14.04383
 Alpha  occ. eigenvalues --  -10.01389 -10.01386 -10.01359 -10.01353 -10.01092
 Alpha  occ. eigenvalues --   -9.99408  -9.99142  -9.99130  -9.99088  -9.99083
 Alpha  occ. eigenvalues --   -9.99063  -9.99017  -9.99013  -9.98809  -9.98793
 Alpha  occ. eigenvalues --   -9.98784  -9.98693  -9.98346  -9.97798  -9.97795
 Alpha  occ. eigenvalues --   -9.97759  -9.97742  -9.97540  -9.97417  -9.97320
 Alpha  occ. eigenvalues --   -9.96037  -9.96026  -9.95905  -9.95818  -9.95787
 Alpha  occ. eigenvalues --   -9.95776  -9.95714  -9.95611  -9.95586  -9.95303
 Alpha  occ. eigenvalues --   -7.75531  -7.75481  -7.75460  -7.75440  -7.75423
 Alpha  occ. eigenvalues --   -7.75363  -7.75114  -7.75094  -7.75025  -7.74853
 Alpha  occ. eigenvalues --   -5.77646  -5.77567  -5.77545  -5.77520  -5.77509
 Alpha  occ. eigenvalues --   -5.77426  -5.77234  -5.77215  -5.77210  -5.77163
 Alpha  occ. eigenvalues --   -5.77144  -5.77141  -5.77119  -5.77103  -5.77022
 Alpha  occ. eigenvalues --   -5.76948  -5.76788  -5.76769  -5.76746  -5.76724
 Alpha  occ. eigenvalues --   -5.76703  -5.76697  -5.76689  -5.76665  -5.76656
 Alpha  occ. eigenvalues --   -5.76498  -5.76339  -5.76320  -5.76255  -5.76135
 Alpha  occ. eigenvalues --   -0.92822  -0.92763  -0.92749  -0.92676  -0.92357
 Alpha  occ. eigenvalues --   -0.86002  -0.85866  -0.85625  -0.85439  -0.84886
 Alpha  occ. eigenvalues --   -0.78989  -0.78801  -0.78599  -0.78478  -0.77106
 Alpha  occ. eigenvalues --   -0.75672  -0.75401  -0.74929  -0.74251  -0.73819
 Alpha  occ. eigenvalues --   -0.72167  -0.72132  -0.72052  -0.71856  -0.71374
 Alpha  occ. eigenvalues --   -0.70416  -0.69448  -0.68528  -0.67581  -0.67005
 Alpha  occ. eigenvalues --   -0.62609  -0.62180  -0.61446  -0.60480  -0.59953
 Alpha  occ. eigenvalues --   -0.59233  -0.58040  -0.57514  -0.56684  -0.55661
 Alpha  occ. eigenvalues --   -0.54759  -0.53713  -0.53197  -0.53025  -0.52762
 Alpha  occ. eigenvalues --   -0.52461  -0.52061  -0.51947  -0.51700  -0.51473
 Alpha  occ. eigenvalues --   -0.51325  -0.50826  -0.50028  -0.49196  -0.47663
 Alpha  occ. eigenvalues --   -0.46631  -0.45701  -0.45189  -0.45056  -0.44734
 Alpha  occ. eigenvalues --   -0.43671  -0.43059  -0.42871  -0.42690  -0.42599
 Alpha  occ. eigenvalues --   -0.42398  -0.42266  -0.41919  -0.41488  -0.41261
 Alpha  occ. eigenvalues --   -0.41079  -0.40919  -0.40705  -0.40352  -0.40249
 Alpha  occ. eigenvalues --   -0.39988  -0.39936  -0.39391  -0.39372  -0.39183
 Alpha  occ. eigenvalues --   -0.38859  -0.38601  -0.38254  -0.38130  -0.37851
 Alpha  occ. eigenvalues --   -0.37368  -0.37218  -0.36902  -0.36763  -0.36518
 Alpha  occ. eigenvalues --   -0.36238  -0.35220  -0.35075  -0.34905  -0.34818
 Alpha  occ. eigenvalues --   -0.34641  -0.33440  -0.32497  -0.31404  -0.30542
 Alpha  occ. eigenvalues --   -0.29655  -0.29315  -0.29295  -0.29073  -0.28499
 Alpha  occ. eigenvalues --   -0.27991  -0.27917  -0.27879  -0.27827  -0.27705
 Alpha  occ. eigenvalues --   -0.27699  -0.27475  -0.27275  -0.27252  -0.27074
 Alpha  occ. eigenvalues --   -0.26935  -0.25720  -0.24231  -0.22718  -0.21252
 Alpha  occ. eigenvalues --   -0.20144
 Alpha virt. eigenvalues --   -0.08982  -0.07904  -0.06543  -0.05233  -0.04128
 Alpha virt. eigenvalues --   -0.02266  -0.01470  -0.01072   0.00026   0.00200
 Alpha virt. eigenvalues --    0.00485   0.00598   0.01247   0.01403   0.01420

  Beta  occ. eigenvalues --  -88.15263 -88.15196 -88.15174 -88.15151 -88.15136
  Beta  occ. eigenvalues --  -88.15090 -88.14892 -88.14873 -88.14803 -88.14638
  Beta  occ. eigenvalues --  -14.04774 -14.04753 -14.04688 -14.04656 -14.04383
  Beta  occ. eigenvalues --  -10.01389 -10.01386 -10.01359 -10.01353 -10.01092
  Beta  occ. eigenvalues --   -9.99408  -9.99142  -9.99130  -9.99088  -9.99083
  Beta  occ. eigenvalues --   -9.99063  -9.99017  -9.99013  -9.98809  -9.98793
  Beta  occ. eigenvalues --   -9.98784  -9.98693  -9.98346  -9.97798  -9.97795
  Beta  occ. eigenvalues --   -9.97759  -9.97742  -9.97540  -9.97417  -9.97320
  Beta  occ. eigenvalues --   -9.96037  -9.96026  -9.95905  -9.95818  -9.95787
  Beta  occ. eigenvalues --   -9.95776  -9.95714  -9.95611  -9.95586  -9.95303
  Beta  occ. eigenvalues --   -7.75531  -7.75481  -7.75460  -7.75440  -7.75423
  Beta  occ. eigenvalues --   -7.75363  -7.75114  -7.75094  -7.75025  -7.74853
  Beta  occ. eigenvalues --   -5.77646  -5.77567  -5.77545  -5.77520  -5.77509
  Beta  occ. eigenvalues --   -5.77426  -5.77234  -5.77215  -5.77210  -5.77163
  Beta  occ. eigenvalues --   -5.77144  -5.77141  -5.77119  -5.77103  -5.77022
  Beta  occ. eigenvalues --   -5.76948  -5.76788  -5.76769  -5.76746  -5.76724
  Beta  occ. eigenvalues --   -5.76703  -5.76697  -5.76689  -5.76665  -5.76656
  Beta  occ. eigenvalues --   -5.76498  -5.76339  -5.76320  -5.76255  -5.76135
  Beta  occ. eigenvalues --   -0.92822  -0.92763  -0.92749  -0.92676  -0.92357
  Beta  occ. eigenvalues --   -0.86002  -0.85866  -0.85625  -0.85439  -0.84886
  Beta  occ. eigenvalues --   -0.78989  -0.78801  -0.78599  -0.78478  -0.77106
  Beta  occ. eigenvalues --   -0.75672  -0.75401  -0.74929  -0.74251  -0.73819
  Beta  occ. eigenvalues --   -0.72167  -0.72132  -0.72052  -0.71856  -0.71374
  Beta  occ. eigenvalues --   -0.70416  -0.69448  -0.68528  -0.67581  -0.67005
  Beta  occ. eigenvalues --   -0.62609  -0.62180  -0.61446  -0.60480  -0.59953
  Beta  occ. eigenvalues --   -0.59233  -0.58040  -0.57514  -0.56684  -0.55661
  Beta  occ. eigenvalues --   -0.54759  -0.53713  -0.53197  -0.53025  -0.52762
  Beta  occ. eigenvalues --   -0.52461  -0.52061  -0.51947  -0.51700  -0.51473
  Beta  occ. eigenvalues --   -0.51325  -0.50826  -0.50028  -0.49196  -0.47663
  Beta  occ. eigenvalues --   -0.46631  -0.45701  -0.45189  -0.45056  -0.44734
  Beta  occ. eigenvalues --   -0.43671  -0.43059  -0.42871  -0.42690  -0.42599
  Beta  occ. eigenvalues --   -0.42398  -0.42266  -0.41919  -0.41488  -0.41261
  Beta  occ. eigenvalues --   -0.41079  -0.40919  -0.40705  -0.40352  -0.40249
  Beta  occ. eigenvalues --   -0.39988  -0.39936  -0.39391  -0.39372  -0.39183
  Beta  occ. eigenvalues --   -0.38859  -0.38601  -0.38254  -0.38130  -0.37851
  Beta  occ. eigenvalues --   -0.37368  -0.37218  -0.36902  -0.36763  -0.36518
  Beta  occ. eigenvalues --   -0.36238  -0.35220  -0.35075  -0.34905  -0.34818
  Beta  occ. eigenvalues --   -0.34641  -0.33440  -0.32497  -0.31404  -0.30542
  Beta  occ. eigenvalues --   -0.29655  -0.29315  -0.29295  -0.29073  -0.28499
  Beta  occ. eigenvalues --   -0.27991  -0.27917  -0.27879  -0.27827  -0.27705
  Beta  occ. eigenvalues --   -0.27699  -0.27475  -0.27275  -0.27252  -0.27074
  Beta  occ. eigenvalues --   -0.26935  -0.25720  -0.24231  -0.22718  -0.21252
  Beta  occ. eigenvalues --   -0.20144
  Beta virt. eigenvalues --   -0.08982  -0.07904  -0.06543  -0.05233  -0.04128
  Beta virt. eigenvalues --   -0.02266  -0.01470  -0.01072   0.00026   0.00200
  Beta virt. eigenvalues --    0.00485   0.00598   0.01247   0.01403   0.01420

 Mulliken charges and spin densities:
               1          2
     1  C   -0.122812  -0.000000
     2  C    0.079166   0.000000
     3  C    0.004685  -0.000000
     4  C   -0.124035   0.000000
     5  S    0.193951  -0.000000
     6  C    0.057917   0.000000
     7  N   -0.187926   0.000000
     8  C    0.128536  -0.000000
     9  C   -0.144566   0.000000
    10  S    0.123541  -0.000000
    11  C   -0.100106  -0.000000
    12  C    0.039564   0.000000
    13  C    0.089494   0.000000
    14  C   -0.112617  -0.000000
    15  S    0.141675  -0.000000
    16  C    0.015327   0.000000
    17  N   -0.176732  -0.000000
    18  C    0.128533   0.000000
    19  C   -0.150950  -0.000000
    20  S    0.125175   0.000000
    21  C   -0.105262   0.000000
    22  C    0.040494  -0.000000
    23  C    0.034741   0.000000
    24  C   -0.111110  -0.000000
    25  S    0.188468  -0.000000
    26  C    0.042386   0.000000
    27  N   -0.188533   0.000000
    28  C    0.132433  -0.000000
    29  C   -0.147253   0.000000
    30  S    0.121927  -0.000000
    31  C   -0.106629   0.000000
    32  C    0.040435  -0.000000
    33  C    0.034533   0.000000
    34  C   -0.110554  -0.000000
    35  S    0.189076   0.000000
    36  C    0.041707   0.000000
    37  N   -0.188561  -0.000000
    38  C    0.131866   0.000000
    39  C   -0.144909  -0.000000
    40  S    0.121594  -0.000000
    41  C   -0.108385  -0.000000
    42  C    0.037772   0.000000
    43  C    0.037800  -0.000000
    44  C   -0.096158  -0.000000
    45  S    0.187534   0.000000
    46  C    0.013284  -0.000000
    47  N   -0.191958   0.000000
    48  C    0.132318   0.000000
    49  C   -0.154113  -0.000000
    50  S    0.137912  -0.000000
    51  H    0.022801   0.000000
    52  H   -0.010426   0.000000
    53  H   -0.010925   0.000000
    54  H    0.008364  -0.000000
    55  H   -0.009144   0.000000
    56  H   -0.010038  -0.000000
    57  H    0.010397   0.000000
    58  H   -0.010971  -0.000000
    59  H   -0.012392   0.000000
    60  H    0.011538  -0.000000
    61  H   -0.011874   0.000000
    62  H   -0.012608   0.000000
    63  H    0.011110  -0.000000
    64  H   -0.012669   0.000000
    65  H   -0.013566  -0.000000
    66  H    0.003787  -0.000000
    67  H    0.025946  -0.000000
 Sum of Mulliken charges =  -0.00000   0.00000

 Dipole moment (field-independent basis, Debye):
    X=              0.3196    Y=             -2.8704    Z=              0.0006  Tot=              2.8881
 Quadrupole moment (field-independent basis, Debye-Ang):
   XX=           -215.4360   YY=           -335.3726   ZZ=           -367.3556
   XY=            -33.8678   XZ=             -0.0183   YZ=              0.0013

 Normal termination of Gaussian 16 at Fri Jul 24 08:04:32 2020.
