 Gaussian 16, Revision A.03,
 Gaussian 16:  EM64L-G16RevA.03 25-Dec-2016

 ---------------------------------------------------------------
 #P uLC-wPBE/cc-pVDZ iop(3/107=0357700000, 3/108=0357700000) opt
 ---------------------------------------------------------------

 -------
 H42 C60
 -------
 Symbolic Z-matrix:
 Charge =  0 Multiplicity = 1

 SCF Done:  E(ULC-wPBE) =  -2309.90787256     A.U. after   16 cycles
 SCF Done:  E(ULC-wPBE) =  -2309.99413360     A.U. after   14 cycles
 SCF Done:  E(ULC-wPBE) =  -2310.06869631     A.U. after   15 cycles
 SCF Done:  E(ULC-wPBE) =  -2310.08800037     A.U. after   15 cycles
 SCF Done:  E(ULC-wPBE) =  -2310.09276514     A.U. after   14 cycles
 SCF Done:  E(ULC-wPBE) =  -2310.09340952     A.U. after   13 cycles
 SCF Done:  E(ULC-wPBE) =  -2310.09364701     A.U. after   13 cycles
 SCF Done:  E(ULC-wPBE) =  -2310.09368795     A.U. after   11 cycles
 SCF Done:  E(ULC-wPBE) =  -2310.09369831     A.U. after   10 cycles
 SCF Done:  E(ULC-wPBE) =  -2310.09370032     A.U. after    8 cycles
 SCF Done:  E(ULC-wPBE) =  -2310.09370091     A.U. after    7 cycles
 SCF Done:  E(ULC-wPBE) =  -2310.09370108     A.U. after    7 cycles
 SCF Done:  E(ULC-wPBE) =  -2310.09370126     A.U. after    7 cycles
 SCF Done:  E(ULC-wPBE) =  -2310.09370129     A.U. after    6 cycles
 Optimization completed.
    -- Stationary point found.

                         Standard orientation:
 ---------------------------------------------------------------------
 Center     Atomic      Atomic             Coordinates (Angstroms)
 Number     Number       Type             X           Y           Z
 ---------------------------------------------------------------------
      1          6           0       20.810632    0.000122   -0.000007
      2          6           0       20.109891    1.116284   -0.446243
      3          6           0       18.719491    1.115840   -0.445646
      4          6           0       18.004182    0.000066   -0.000000
      5          6           0       18.719536   -1.115678    0.445646
      6          6           0       20.109937   -1.116068    0.446232
      7          6           0       16.517329    0.000034    0.000002
      8          6           0       15.797220    1.115959    0.435362
      9          6           0       14.408490    1.115588    0.436399
     10          6           0       13.688339   -0.000020    0.000011
     11          6           0       14.408530   -1.115598   -0.436382
     12          6           0       15.797260   -1.115919   -0.435354
     13          6           0       12.202373   -0.000041    0.000013
     14          6           0       11.482056    0.532949    1.072854
     15          6           0       10.093380    0.532988    1.072849
     16          6           0        9.373120   -0.000051    0.000004
     17          6           0       10.093391   -0.533094   -1.072831
     18          6           0       11.482067   -0.533045   -1.072828
     19          6           0        7.887186   -0.000052    0.000002
     20          6           0        7.166942   -1.115494   -0.436764
     21          6           0        5.778287   -1.115839   -0.435911
     22          6           0        5.058080   -0.000048   -0.000005
     23          6           0        5.778288    1.115743    0.435901
     24          6           0        7.166942    1.115387    0.436773
     25          6           0        3.572151   -0.000042   -0.000014
     26          6           0        2.851903    1.119211   -0.427140
     27          6           0        1.463244    1.119138   -0.427203
     28          6           0        0.742939   -0.000036   -0.000024
     29          6           0        1.463235   -1.119214    0.427164
     30          6           0        2.851894   -1.119291    0.427110
     31          6           0       -0.742922   -0.000031   -0.000027
     32          6           0       -1.463212    1.118309    0.429379
     33          6           0       -2.851860    1.118317    0.429380
     34          6           0       -3.572157   -0.000017   -0.000021
     35          6           0       -2.851873   -1.118357   -0.429431
     36          6           0       -1.463225   -1.118360   -0.429433
     37          6           0       -5.058016   -0.000015   -0.000014
     38          6           0       -5.778299    1.119040   -0.427546
     39          6           0       -7.166949    1.119023   -0.427559
     40          6           0       -7.887258   -0.000014    0.000008
     41          6           0       -7.166941   -1.119052    0.427561
     42          6           0       -5.778293   -1.119072    0.427528
     43          6           0       -9.373119   -0.000010    0.000026
     44          6           0      -10.093412    1.118445    0.429102
     45          6           0      -11.482076    1.118501    0.429087
     46          6           0      -12.202388    0.000018    0.000046
     47          6           0      -11.482107   -1.118483   -0.428996
     48          6           0      -10.093440   -1.118450   -0.429029
     49          6           0      -13.688351    0.000034    0.000050
     50          6           0      -14.408504    1.116506   -0.434108
     51          6           0      -15.797234    1.116055   -0.435119
     52          6           0      -16.517323    0.000034    0.000037
     53          6           0      -15.797243   -1.116000    0.435170
     54          6           0      -14.408514   -1.116448    0.434182
     55          6           0      -18.004178    0.000029   -0.000002
     56          6           0      -18.719531   -0.519568    1.083285
     57          6           0      -20.109931   -0.519471    1.083963
     58          6           0      -20.810613    0.000046   -0.000072
     59          6           0      -20.109871    0.519554   -1.084073
     60          6           0      -18.719472    0.519635   -1.083324
     61          1           0       21.903630    0.000142   -0.000005
     62          1           0       20.651082    1.995480   -0.805697
     63          1           0       18.176382    1.989052   -0.817287
     64          1           0       18.176464   -1.988911    0.817289
     65          1           0       20.651167   -1.995242    0.805680
     66          1           0       16.335239    1.997778    0.793604
     67          1           0       13.870769    2.007064    0.770379
     68          1           0       13.870839   -2.007094   -0.770357
     69          1           0       16.335313   -1.997716   -0.793598
     70          1           0       12.019530    0.930224    1.938108
     71          1           0        9.555954    0.930263    1.938142
     72          1           0        9.555973   -0.930377   -1.938126
     73          1           0       12.019553   -0.930331   -1.938069
     74          1           0        7.704652   -2.006808   -0.771134
     75          1           0        5.240598   -1.997473   -0.795065
     76          1           0        5.240600    1.997374    0.795063
     77          1           0        7.704654    2.006709    0.771118
     78          1           0        3.389379    1.997889   -0.793758
     79          1           0        0.925761    1.997771   -0.793924
     80          1           0        0.925748   -1.997843    0.793887
     81          1           0        3.389364   -1.997972    0.793731
     82          1           0       -0.925700    1.996202    0.797816
     83          1           0       -3.389377    1.996215    0.797798
     84          1           0       -3.389401   -1.996244   -0.797860
     85          1           0       -0.925723   -1.996260   -0.797871
     86          1           0       -5.240776    1.997548   -0.794507
     87          1           0       -7.704480    1.997509   -0.794545
     88          1           0       -7.704465   -1.997543    0.794549
     89          1           0       -5.240764   -1.997577    0.794486
     90          1           0       -9.555924    1.996465    0.797293
     91          1           0      -12.019575    1.996549    0.797176
     92          1           0      -12.019626   -1.996525   -0.797068
     93          1           0       -9.555977   -1.996490   -0.797212
     94          1           0      -13.870800    1.998687   -0.791940
     95          1           0      -16.335288    2.007525   -0.768564
     96          1           0      -16.335303   -2.007478    0.768585
     97          1           0      -13.870814   -1.998629    0.792021
     98          1           0      -18.176455   -0.910740    1.947945
     99          1           0      -20.651176   -0.923296    1.943646
    100          1           0      -21.903612    0.000060   -0.000093
    101          1           0      -20.651065    0.923377   -1.943789
    102          1           0      -18.176348    0.910807   -1.947954
 ---------------------------------------------------------------------

 The electronic state is 1-A.
 Alpha  occ. eigenvalues --  -10.11284 -10.11280 -10.11277 -10.11271 -10.11268
 Alpha  occ. eigenvalues --  -10.11267 -10.11267 -10.11264 -10.11249 -10.11248
 Alpha  occ. eigenvalues --  -10.11244 -10.11242 -10.11208 -10.11206 -10.11178
 Alpha  occ. eigenvalues --  -10.11176 -10.11158 -10.11157 -10.10401 -10.10399
 Alpha  occ. eigenvalues --  -10.10397 -10.10397 -10.10394 -10.10393 -10.10393
 Alpha  occ. eigenvalues --  -10.10388 -10.10371 -10.10367 -10.10366 -10.10364
 Alpha  occ. eigenvalues --  -10.10362 -10.10362 -10.10362 -10.10360 -10.10360
 Alpha  occ. eigenvalues --  -10.10358 -10.10356 -10.10354 -10.10333 -10.10331
 Alpha  occ. eigenvalues --  -10.10330 -10.10329 -10.10328 -10.10327 -10.10326
 Alpha  occ. eigenvalues --  -10.10324 -10.10289 -10.10287 -10.10287 -10.10285
 Alpha  occ. eigenvalues --  -10.10250 -10.10249 -10.10246 -10.10245 -10.10164
 Alpha  occ. eigenvalues --  -10.10164 -10.10163 -10.10162 -10.10146 -10.10145
 Alpha  occ. eigenvalues --   -1.01454  -1.01277  -1.01013  -1.00661  -1.00216
 Alpha  occ. eigenvalues --   -0.99689  -0.99096  -0.98467  -0.97879  -0.97506
 Alpha  occ. eigenvalues --   -0.93844  -0.93011  -0.91925  -0.90677  -0.89310
 Alpha  occ. eigenvalues --   -0.88526  -0.88416  -0.88269  -0.88088  -0.87878
 Alpha  occ. eigenvalues --   -0.87854  -0.87654  -0.87438  -0.87243  -0.87094
 Alpha  occ. eigenvalues --   -0.87036  -0.86338  -0.84802  -0.83336  -0.82174
 Alpha  occ. eigenvalues --   -0.77480  -0.76274  -0.75744  -0.75409  -0.74913
 Alpha  occ. eigenvalues --   -0.74825  -0.74287  -0.73556  -0.73370  -0.72774
 Alpha  occ. eigenvalues --   -0.72047  -0.72008  -0.71297  -0.70944  -0.70727
 Alpha  occ. eigenvalues --   -0.70373  -0.70093  -0.69474  -0.69063  -0.68852
 Alpha  occ. eigenvalues --   -0.66249  -0.65995  -0.65597  -0.65012  -0.64188
 Alpha  occ. eigenvalues --   -0.63105  -0.61824  -0.60539  -0.60018  -0.59644
 Alpha  occ. eigenvalues --   -0.59504  -0.58906  -0.58897  -0.58820  -0.58014
 Alpha  occ. eigenvalues --   -0.57325  -0.56666  -0.56404  -0.56322  -0.55957
 Alpha  occ. eigenvalues --   -0.55895  -0.55876  -0.55556  -0.55464  -0.55186
 Alpha  occ. eigenvalues --   -0.55124  -0.55000  -0.54892  -0.54780  -0.54700
 Alpha  occ. eigenvalues --   -0.53879  -0.53773  -0.53639  -0.53466  -0.53333
 Alpha  occ. eigenvalues --   -0.53196  -0.52953  -0.52923  -0.52804  -0.52633
 Alpha  occ. eigenvalues --   -0.52584  -0.51569  -0.51011  -0.50915  -0.50672
 Alpha  occ. eigenvalues --   -0.50044  -0.49983  -0.49968  -0.49229  -0.49057
 Alpha  occ. eigenvalues --   -0.48662  -0.48500  -0.48100  -0.47634  -0.47170
 Alpha  occ. eigenvalues --   -0.46436  -0.46095  -0.46036  -0.45670  -0.45216
 Alpha  occ. eigenvalues --   -0.45104  -0.44890  -0.44443  -0.44373  -0.43958
 Alpha  occ. eigenvalues --   -0.43856  -0.43711  -0.43528  -0.43409  -0.43398
 Alpha  occ. eigenvalues --   -0.43262  -0.40351  -0.39642  -0.38617  -0.37350
 Alpha  occ. eigenvalues --   -0.36019  -0.35885  -0.35863  -0.35831  -0.35804
 Alpha  occ. eigenvalues --   -0.35772  -0.35747  -0.35713  -0.35705  -0.35542
 Alpha  occ. eigenvalues --   -0.35541  -0.34522  -0.32963  -0.31596  -0.30454
 Alpha  occ. eigenvalues --   -0.29752
 Alpha virt. eigenvalues --    0.01389   0.02248   0.03502   0.05008   0.06668
 Alpha virt. eigenvalues --    0.06780   0.06801   0.06826   0.06851   0.06877
 Alpha virt. eigenvalues --    0.06925   0.06976   0.06980   0.07215   0.07216

  Beta  occ. eigenvalues --  -10.11284 -10.11280 -10.11277 -10.11271 -10.11268
  Beta  occ. eigenvalues --  -10.11267 -10.11267 -10.11264 -10.11249 -10.11248
  Beta  occ. eigenvalues --  -10.11244 -10.11242 -10.11208 -10.11206 -10.11178
  Beta  occ. eigenvalues --  -10.11176 -10.11158 -10.11157 -10.10401 -10.10399
  Beta  occ. eigenvalues --  -10.10397 -10.10397 -10.10394 -10.10393 -10.10393
  Beta  occ. eigenvalues --  -10.10388 -10.10371 -10.10367 -10.10366 -10.10364
  Beta  occ. eigenvalues --  -10.10362 -10.10362 -10.10362 -10.10360 -10.10360
  Beta  occ. eigenvalues --  -10.10358 -10.10356 -10.10354 -10.10333 -10.10331
  Beta  occ. eigenvalues --  -10.10330 -10.10329 -10.10328 -10.10327 -10.10326
  Beta  occ. eigenvalues --  -10.10324 -10.10289 -10.10287 -10.10287 -10.10285
  Beta  occ. eigenvalues --  -10.10250 -10.10249 -10.10246 -10.10245 -10.10164
  Beta  occ. eigenvalues --  -10.10164 -10.10163 -10.10162 -10.10146 -10.10145
  Beta  occ. eigenvalues --   -1.01454  -1.01277  -1.01013  -1.00661  -1.00216
  Beta  occ. eigenvalues --   -0.99689  -0.99096  -0.98467  -0.97879  -0.97506
  Beta  occ. eigenvalues --   -0.93844  -0.93011  -0.91925  -0.90677  -0.89310
  Beta  occ. eigenvalues --   -0.88526  -0.88416  -0.88269  -0.88088  -0.87878
  Beta  occ. eigenvalues --   -0.87854  -0.87654  -0.87438  -0.87243  -0.87094
  Beta  occ. eigenvalues --   -0.87036  -0.86338  -0.84802  -0.83336  -0.82174
  Beta  occ. eigenvalues --   -0.77480  -0.76274  -0.75744  -0.75409  -0.74913
  Beta  occ. eigenvalues --   -0.74825  -0.74287  -0.73556  -0.73370  -0.72774
  Beta  occ. eigenvalues --   -0.72047  -0.72008  -0.71297  -0.70944  -0.70727
  Beta  occ. eigenvalues --   -0.70373  -0.70093  -0.69474  -0.69063  -0.68852
  Beta  occ. eigenvalues --   -0.66249  -0.65995  -0.65597  -0.65012  -0.64188
  Beta  occ. eigenvalues --   -0.63105  -0.61824  -0.60539  -0.60018  -0.59644
  Beta  occ. eigenvalues --   -0.59504  -0.58906  -0.58897  -0.58820  -0.58014
  Beta  occ. eigenvalues --   -0.57325  -0.56666  -0.56404  -0.56322  -0.55957
  Beta  occ. eigenvalues --   -0.55895  -0.55876  -0.55556  -0.55464  -0.55186
  Beta  occ. eigenvalues --   -0.55124  -0.55000  -0.54892  -0.54780  -0.54700
  Beta  occ. eigenvalues --   -0.53879  -0.53773  -0.53639  -0.53466  -0.53333
  Beta  occ. eigenvalues --   -0.53196  -0.52953  -0.52923  -0.52804  -0.52633
  Beta  occ. eigenvalues --   -0.52584  -0.51569  -0.51011  -0.50915  -0.50672
  Beta  occ. eigenvalues --   -0.50044  -0.49983  -0.49968  -0.49229  -0.49057
  Beta  occ. eigenvalues --   -0.48662  -0.48500  -0.48100  -0.47634  -0.47170
  Beta  occ. eigenvalues --   -0.46436  -0.46095  -0.46036  -0.45670  -0.45216
  Beta  occ. eigenvalues --   -0.45104  -0.44890  -0.44443  -0.44373  -0.43958
  Beta  occ. eigenvalues --   -0.43856  -0.43711  -0.43528  -0.43409  -0.43398
  Beta  occ. eigenvalues --   -0.43262  -0.40351  -0.39642  -0.38617  -0.37350
  Beta  occ. eigenvalues --   -0.36019  -0.35885  -0.35863  -0.35831  -0.35804
  Beta  occ. eigenvalues --   -0.35772  -0.35747  -0.35713  -0.35705  -0.35542
  Beta  occ. eigenvalues --   -0.35541  -0.34522  -0.32963  -0.31596  -0.30454
  Beta  occ. eigenvalues --   -0.29752
  Beta virt. eigenvalues --    0.01389   0.02248   0.03502   0.05008   0.06668
  Beta virt. eigenvalues --    0.06780   0.06801   0.06826   0.06851   0.06877
  Beta virt. eigenvalues --    0.06925   0.06976   0.06980   0.07215   0.07216

 Mulliken charges and spin densities:
               1          2
     1  C    0.001443   0.000000
     2  C    0.013993  -0.000000
     3  C   -0.006995   0.000000
     4  C   -0.006444  -0.000000
     5  C   -0.006994   0.000000
     6  C    0.013992  -0.000000
     7  C    0.000272  -0.000000
     8  C    0.007139   0.000000
     9  C    0.005276  -0.000000
    10  C   -0.000620   0.000000
    11  C    0.005275  -0.000000
    12  C    0.007139   0.000000
    13  C    0.002791  -0.000000
    14  C    0.004502   0.000000
    15  C    0.004387  -0.000000
    16  C    0.002677  -0.000000
    17  C    0.004386   0.000000
    18  C    0.004504  -0.000000
    19  C   -0.000295  -0.000000
    20  C    0.005725   0.000000
    21  C    0.005730  -0.000000
    22  C   -0.000409   0.000000
    23  C    0.005728  -0.000000
    24  C    0.005723   0.000000
    25  C    0.002848  -0.000000
    26  C    0.004670   0.000000
    27  C    0.004268   0.000000
    28  C    0.002647  -0.000000
    29  C    0.004268  -0.000000
    30  C    0.004669   0.000000
    31  C    0.002797  -0.000000
    32  C    0.004423   0.000000
    33  C    0.004460  -0.000000
    34  C    0.002764   0.000000
    35  C    0.004459  -0.000000
    36  C    0.004424   0.000000
    37  C    0.002730   0.000000
    38  C    0.004429  -0.000000
    39  C    0.004446   0.000000
    40  C    0.002822  -0.000000
    41  C    0.004446  -0.000000
    42  C    0.004429   0.000000
    43  C    0.002594   0.000000
    44  C    0.004207  -0.000000
    45  C    0.004694  -0.000000
    46  C    0.002905   0.000000
    47  C    0.004692  -0.000000
    48  C    0.004208  -0.000000
    49  C   -0.000659  -0.000000
    50  C    0.005309   0.000000
    51  C    0.007127   0.000000
    52  C    0.000286   0.000000
    53  C    0.007137  -0.000000
    54  C    0.005304  -0.000000
    55  C   -0.006442   0.000000
    56  C   -0.007008  -0.000000
    57  C    0.013993   0.000000
    58  C    0.001442  -0.000000
    59  C    0.013995   0.000000
    60  C   -0.007013  -0.000000
    61  H   -0.000022   0.000000
    62  H    0.001447  -0.000000
    63  H   -0.006174   0.000000
    64  H   -0.006174   0.000000
    65  H    0.001448   0.000000
    66  H   -0.005702  -0.000000
    67  H   -0.006235  -0.000000
    68  H   -0.006236  -0.000000
    69  H   -0.005702  -0.000000
    70  H   -0.005499  -0.000000
    71  H   -0.005585  -0.000000
    72  H   -0.005585  -0.000000
    73  H   -0.005500  -0.000000
    74  H   -0.005958  -0.000000
    75  H   -0.005999  -0.000000
    76  H   -0.005998  -0.000000
    77  H   -0.005957  -0.000000
    78  H   -0.005539   0.000000
    79  H   -0.005835   0.000000
    80  H   -0.005835  -0.000000
    81  H   -0.005539  -0.000000
    82  H   -0.005914  -0.000000
    83  H   -0.005886  -0.000000
    84  H   -0.005885  -0.000000
    85  H   -0.005915  -0.000000
    86  H   -0.005931   0.000000
    87  H   -0.005897   0.000000
    88  H   -0.005898   0.000000
    89  H   -0.005931   0.000000
    90  H   -0.005947   0.000000
    91  H   -0.005568   0.000000
    92  H   -0.005567  -0.000000
    93  H   -0.005948   0.000000
    94  H   -0.006214   0.000000
    95  H   -0.005690   0.000000
    96  H   -0.005691   0.000000
    97  H   -0.006212   0.000000
    98  H   -0.006156   0.000000
    99  H    0.001455   0.000000
   100  H   -0.000019  -0.000000
   101  H    0.001454  -0.000000
   102  H   -0.006155  -0.000000
 Sum of Mulliken charges =  -0.00000   0.00000

 Dipole moment (field-independent basis, Debye):
    X=              0.0003    Y=              0.0000    Z=             -0.0000  Tot=              0.0003
 Quadrupole moment (field-independent basis, Debye-Ang):
   XX=           -292.3612   YY=           -317.0233   ZZ=           -350.0846
   XY=              0.0003   XZ=              0.0003   YZ=             -0.1779

 Normal termination of Gaussian 16 at Sat Jul 25 12:35:55 2020.
