 Gaussian 16, Revision A.03,
 Gaussian 16:  EM64L-G16RevA.03 25-Dec-2016

 ---------------------------------------------------------------
 #P uLC-wPBE/cc-pVDZ iop(3/107=0244100000, 3/108=0244100000) opt
 ---------------------------------------------------------------

 ---------------
 H16 C56 S14 F14
 ---------------
 Symbolic Z-matrix:
 Charge =  0 Multiplicity = 1

 SCF Done:  E(ULC-wPBE) =  -9111.36917179     A.U. after   16 cycles
 SCF Done:  E(ULC-wPBE) =  -9111.45223801     A.U. after   14 cycles
 SCF Done:  E(ULC-wPBE) =  -9111.52759663     A.U. after   15 cycles
 SCF Done:  E(ULC-wPBE) =  -9111.54416661     A.U. after   14 cycles
 SCF Done:  E(ULC-wPBE) =  -9111.54857690     A.U. after   13 cycles
 SCF Done:  E(ULC-wPBE) =  -9111.55004224     A.U. after   13 cycles
 SCF Done:  E(ULC-wPBE) =  -9111.55138379     A.U. after   16 cycles
 SCF Done:  E(ULC-wPBE) =  -9111.55202522     A.U. after   13 cycles
 SCF Done:  E(ULC-wPBE) =  -9111.55229764     A.U. after   12 cycles
 SCF Done:  E(ULC-wPBE) =  -9111.55236910     A.U. after   11 cycles
 SCF Done:  E(ULC-wPBE) =  -9111.55356537     A.U. after   11 cycles
 SCF Done:  E(ULC-wPBE) =  -9111.55357020     A.U. after   11 cycles
 SCF Done:  E(ULC-wPBE) =  -9111.55357251     A.U. after   11 cycles
 SCF Done:  E(ULC-wPBE) =  -9111.55357332     A.U. after   11 cycles
 SCF Done:  E(ULC-wPBE) =  -9111.55357389     A.U. after   10 cycles
 SCF Done:  E(ULC-wPBE) =  -9111.55357417     A.U. after    8 cycles
 SCF Done:  E(ULC-wPBE) =  -9111.55357452     A.U. after    7 cycles
 SCF Done:  E(ULC-wPBE) =  -9111.55357453     A.U. after    6 cycles
 SCF Done:  E(ULC-wPBE) =  -9111.55357445     A.U. after    6 cycles
 SCF Done:  E(ULC-wPBE) =  -9111.55357454     A.U. after    6 cycles
 Optimization completed on the basis of negligible forces.
    -- Stationary point found.

                         Standard orientation:
 ---------------------------------------------------------------------
 Center     Atomic      Atomic             Coordinates (Angstroms)
 Number     Number       Type             X           Y           Z
 ---------------------------------------------------------------------
      1          6           0       24.918192   -2.706203    0.146300
      2          6           0       24.216019   -2.345174    1.266015
      3          6           0       22.866207   -2.052332    0.939562
      4          9           0       21.964734   -1.670582    1.867070
      5          6           0       22.535318   -2.183323   -0.392011
      6         16           0       23.948276   -2.688997   -1.279764
      7          6           0       21.245143   -1.954864   -1.020264
      8          6           0       20.909830   -2.080528   -2.351291
      9          9           0       21.807585   -2.459807   -3.282482
     10          6           0       19.560352   -1.801028   -2.673957
     11          6           0       18.841950   -1.442374   -1.554443
     12         16           0       19.837845   -1.446756   -0.126316
     13          6           0       17.432006   -1.071973   -1.488429
     14          6           0       16.684104   -0.450031   -2.464443
     15          6           0       15.345438   -0.263811   -2.045696
     16          9           0       14.422722    0.330469   -2.827773
     17          6           0       15.046658   -0.715555   -0.777696
     18         16           0       16.476597   -1.424736   -0.076330
     19          6           0       13.776195   -0.650344   -0.079150
     20          6           0       13.475223   -1.107924    1.186380
     21          9           0       14.395883   -1.706731    1.967114
     22          6           0       12.144228   -0.894187    1.616075
     23          6           0       11.400387   -0.259811    0.644985
     24         16           0       12.346067    0.056110   -0.782360
     25          6           0        9.992612    0.117530    0.714477
     26          6           0        8.990020   -0.519063    1.413421
     27          6           0        7.751222    0.145785    1.254979
     28          9           0        6.618950   -0.292755    1.839484
     29          6           0        7.771672    1.265711    0.450830
     30         16           0        9.398504    1.525956   -0.118910
     31          6           0        6.665250    2.136338    0.098339
     32          6           0        6.685843    3.258000   -0.703405
     33          9           0        7.817018    3.695659   -1.290119
     34          6           0        5.441896    3.908876   -0.880595
     35          6           0        4.439261    3.268897   -0.185566
     36         16           0        5.041325    1.883392    0.679494
     37          6           0        3.031911    3.648988   -0.111629
     38          6           0        2.503030    4.919511   -0.175020
     39          6           0        1.088902    4.904333   -0.068640
     40          9           0        0.364370    6.031984   -0.068798
     41          6           0        0.524711    3.655304    0.073221
     42         16           0        1.781214    2.449228    0.046263
     43          6           0       -0.883362    3.317583    0.216128
     44          6           0       -1.959797    3.863297   -0.448286
     45          9           0       -1.829699    4.816993   -1.380960
     46          6           0       -3.224732    3.335252   -0.084220
     47          6           0       -3.109559    2.352979    0.874875
     48         16           0       -1.448586    2.096604    1.323284
     49          6           0       -4.168490    1.566357    1.499162
     50          6           0       -4.176502    0.974273    2.743013
     51          6           0       -5.401531    0.306246    2.997860
     52          9           0       -5.646101   -0.308628    4.163161
     53          6           0       -6.326577    0.369405    1.978904
     54         16           0       -5.652890    1.263740    0.644216
     55          6           0       -7.664717   -0.200842    1.943796
     56          6           0       -8.076347   -1.432433    2.403729
     57          9           0       -7.236056   -2.318885    2.955305
     58          6           0       -9.458775   -1.705874    2.243137
     59          6           0      -10.117758   -0.660235    1.634207
     60         16           0       -9.030385    0.649398    1.273932
     61          6           0      -11.530600   -0.557972    1.285613
     62          6           0      -12.298415    0.578239    1.151481
     63          6           0      -13.632871    0.259384    0.805297
     64          9           0      -14.575681    1.205302    0.628186
     65          6           0      -13.911584   -1.084571    0.674052
     66         16           0      -12.456477   -1.997746    0.971737
     67          6           0      -15.178575   -1.709326    0.341511
     68          6           0      -15.456726   -3.053353    0.209630
     69          9           0      -14.512143   -3.998624    0.385775
     70          6           0      -16.790352   -3.373449   -0.138009
     71          6           0      -17.559786   -2.237763   -0.268779
     72         16           0      -16.634558   -0.796964    0.046077
     73          6           0      -18.977920   -2.162667   -0.604467
     74          6           0      -19.956856   -3.085445   -0.307410
     75          6           0      -21.216839   -2.677165   -0.806369
     76          9           0      -22.331611   -3.414828   -0.633159
     77          6           0      -21.234972   -1.468422   -1.468609
     78         16           0      -19.620061   -0.813501   -1.498226
     79          6           0      -22.369132   -0.791131   -2.073820
     80          6           0      -22.381082    0.416712   -2.737723
     81          9           0      -21.262597    1.150251   -2.909520
     82          6           0      -23.646638    0.833332   -3.226658
     83          6           0      -24.612167   -0.089325   -2.920669
     84         16           0      -23.986854   -1.441293   -2.051311
     85          1           0       25.971799   -2.986850    0.077206
     86          1           0       24.623420   -2.285350    2.278346
     87          1           0       19.144961   -1.891804   -3.680723
     88          1           0       17.072207   -0.111739   -3.428368
     89          1           0       11.773173   -1.172543    2.605577
     90          1           0        9.117560   -1.436754    1.992912
     91          1           0        5.300367    4.787860   -1.514336
     92          1           0        3.094628    5.835346   -0.252661
     93          1           0       -4.169879    3.683021   -0.510418
     94          1           0       -3.361225    1.037788    3.469150
     95          1           0       -9.934274   -2.631646    2.578875
     96          1           0      -11.942460    1.599012    1.315181
     97          1           0      -17.146011   -4.392359   -0.309874
     98          1           0      -19.798524   -4.002251    0.265978
     99          1           0      -23.810846    1.766365   -3.771498
    100          1           0      -25.677038   -0.050421   -3.161836
 ---------------------------------------------------------------------

 Alpha  occ. eigenvalues --   -0.87851  -0.87138  -0.86318  -0.85521  -0.85011
 Alpha  occ. eigenvalues --   -0.83954  -0.83741  -0.83663  -0.83502  -0.83470
 Alpha  occ. eigenvalues --   -0.83364  -0.83102  -0.82739  -0.82459  -0.82401
 Alpha  occ. eigenvalues --   -0.82285  -0.82243  -0.81904  -0.81467  -0.81240
 Alpha  occ. eigenvalues --   -0.81112  -0.80188  -0.79212  -0.78187  -0.77433
 Alpha  occ. eigenvalues --   -0.76784  -0.73026  -0.72214  -0.71699  -0.71183
 Alpha  occ. eigenvalues --   -0.70960  -0.69649  -0.69215  -0.68886  -0.68857
 Alpha  occ. eigenvalues --   -0.68335  -0.67934  -0.67757  -0.67404  -0.66702
 Alpha  occ. eigenvalues --   -0.66675  -0.66227  -0.66099  -0.66071  -0.65334
 Alpha  occ. eigenvalues --   -0.65271  -0.65215  -0.65201  -0.64951  -0.64656
 Alpha  occ. eigenvalues --   -0.63263  -0.63167  -0.63091  -0.62975  -0.62809
 Alpha  occ. eigenvalues --   -0.62649  -0.62641  -0.62079  -0.61583  -0.61117
 Alpha  occ. eigenvalues --   -0.60905  -0.59254  -0.58818  -0.58410  -0.58004
 Alpha  occ. eigenvalues --   -0.57257  -0.56773  -0.56495  -0.56164  -0.56057
 Alpha  occ. eigenvalues --   -0.55978  -0.55925  -0.55728  -0.55680  -0.55598
 Alpha  occ. eigenvalues --   -0.55530  -0.55464  -0.55387  -0.55325  -0.55139
 Alpha  occ. eigenvalues --   -0.55084  -0.54846  -0.54830  -0.54701  -0.54682
 Alpha  occ. eigenvalues --   -0.54458  -0.54391  -0.54337  -0.54285  -0.54242
 Alpha  occ. eigenvalues --   -0.54105  -0.53995  -0.53845  -0.53717  -0.53506
 Alpha  occ. eigenvalues --   -0.53429  -0.53314  -0.53133  -0.53067  -0.52920
 Alpha  occ. eigenvalues --   -0.52726  -0.52597  -0.52555  -0.51519  -0.51094
 Alpha  occ. eigenvalues --   -0.50332  -0.49917  -0.49666  -0.49622  -0.49254
 Alpha  occ. eigenvalues --   -0.48977  -0.48710  -0.48521  -0.48323  -0.48120
 Alpha  occ. eigenvalues --   -0.47593  -0.47585  -0.47390  -0.47317  -0.47077
 Alpha  occ. eigenvalues --   -0.46931  -0.46844  -0.46767  -0.46718  -0.46563
 Alpha  occ. eigenvalues --   -0.46464  -0.46425  -0.46278  -0.46168  -0.46032
 Alpha  occ. eigenvalues --   -0.45860  -0.45781  -0.45674  -0.45647  -0.45497
 Alpha  occ. eigenvalues --   -0.45412  -0.45340  -0.45071  -0.44931  -0.44753
 Alpha  occ. eigenvalues --   -0.44651  -0.44296  -0.44200  -0.43934  -0.43733
 Alpha  occ. eigenvalues --   -0.43546  -0.43165  -0.42805  -0.42376  -0.42284
 Alpha  occ. eigenvalues --   -0.41935  -0.41596  -0.41582  -0.40202  -0.39993
 Alpha  occ. eigenvalues --   -0.38960  -0.38133  -0.37140  -0.36258  -0.35131
 Alpha  occ. eigenvalues --   -0.34569  -0.34517  -0.34351  -0.34306  -0.34270
 Alpha  occ. eigenvalues --   -0.34174  -0.34095  -0.34059  -0.33912  -0.33878
 Alpha  occ. eigenvalues --   -0.33834  -0.33713  -0.33567  -0.33484  -0.32198
 Alpha  occ. eigenvalues --   -0.30784  -0.29717  -0.28480  -0.27391  -0.26283
 Alpha  occ. eigenvalues --   -0.25897
 Alpha virt. eigenvalues --   -0.03526  -0.03031  -0.02029  -0.01012   0.00192
 Alpha virt. eigenvalues --    0.01066   0.02872   0.03331   0.04440   0.05185
 Alpha virt. eigenvalues --    0.05341   0.06046   0.06157   0.06182   0.06389

  Beta  occ. eigenvalues --  -88.25868 -88.25854 -88.25853 -88.25843 -88.25796
  Beta  occ. eigenvalues --  -88.25791 -88.25779 -88.25731 -88.25694 -88.25632
  Beta  occ. eigenvalues --  -88.25517 -88.25477 -88.25159 -88.25133 -24.44323
  Beta  occ. eigenvalues --  -24.44323 -24.44272 -24.44249 -24.44198 -24.44177
  Beta  occ. eigenvalues --  -24.43952 -24.43918 -24.43781 -24.43754 -24.43592
  Beta  occ. eigenvalues --  -24.43580 -24.43578 -24.43532 -10.13459 -10.13437
  Beta  occ. eigenvalues --  -10.13423 -10.13418 -10.13410 -10.13393 -10.13370
  Beta  occ. eigenvalues --  -10.13365 -10.13327 -10.13286 -10.13069 -10.13033
  Beta  occ. eigenvalues --  -10.12796 -10.12768 -10.10195 -10.10183 -10.10151
  Beta  occ. eigenvalues --  -10.10131 -10.10004 -10.09963 -10.09952 -10.09879
  Beta  occ. eigenvalues --  -10.09855 -10.09789 -10.09659 -10.09656 -10.09618
  Beta  occ. eigenvalues --  -10.09605 -10.09596 -10.09523 -10.09500 -10.09433
  Beta  occ. eigenvalues --  -10.09326 -10.09324 -10.09297 -10.09286 -10.09271
  Beta  occ. eigenvalues --  -10.09247 -10.08949 -10.08923 -10.08009 -10.07985
  Beta  occ. eigenvalues --  -10.06449 -10.06423 -10.06399 -10.06385 -10.06371
  Beta  occ. eigenvalues --  -10.06345 -10.06328 -10.06298 -10.06263 -10.06201
  Beta  occ. eigenvalues --  -10.06150 -10.06107 -10.05757 -10.05734  -7.86288
  Beta  occ. eigenvalues --   -7.86283  -7.86276  -7.86270  -7.86226  -7.86198
  Beta  occ. eigenvalues --   -7.86183  -7.86132  -7.86096  -7.86034  -7.85919
  Beta  occ. eigenvalues --   -7.85879  -7.85570  -7.85544  -5.88258  -5.88253
  Beta  occ. eigenvalues --   -5.88250  -5.88247  -5.88197  -5.88181  -5.88168
  Beta  occ. eigenvalues --   -5.88115  -5.88079  -5.88017  -5.87901  -5.87861
  Beta  occ. eigenvalues --   -5.87781  -5.87774  -5.87771  -5.87761  -5.87721
  Beta  occ. eigenvalues --   -5.87688  -5.87675  -5.87623  -5.87586  -5.87541
  Beta  occ. eigenvalues --   -5.87524  -5.87516  -5.87409  -5.87369  -5.87307
  Beta  occ. eigenvalues --   -5.87307  -5.87294  -5.87284  -5.87242  -5.87212
  Beta  occ. eigenvalues --   -5.87193  -5.87147  -5.87110  -5.87048  -5.87042
  Beta  occ. eigenvalues --   -5.87017  -5.86936  -5.86896  -5.86611  -5.86585
  Beta  occ. eigenvalues --   -1.28080  -1.28059  -1.28013  -1.27994  -1.27948
  Beta  occ. eigenvalues --   -1.27914  -1.27746  -1.27721  -1.27691  -1.27657
  Beta  occ. eigenvalues --   -1.27488  -1.27461  -1.27397  -1.27371  -0.99602
  Beta  occ. eigenvalues --   -0.99459  -0.99272  -0.99057  -0.98794  -0.98547
  Beta  occ. eigenvalues --   -0.98014  -0.97733  -0.97388  -0.96988  -0.96602
  Beta  occ. eigenvalues --   -0.96238  -0.95972  -0.95887  -0.88863  -0.88465
  Beta  occ. eigenvalues --   -0.87851  -0.87138  -0.86318  -0.85521  -0.85011
  Beta  occ. eigenvalues --   -0.83954  -0.83741  -0.83663  -0.83502  -0.83470
  Beta  occ. eigenvalues --   -0.83364  -0.83102  -0.82739  -0.82459  -0.82401
  Beta  occ. eigenvalues --   -0.82285  -0.82243  -0.81904  -0.81467  -0.81240
  Beta  occ. eigenvalues --   -0.81112  -0.80188  -0.79212  -0.78187  -0.77433
  Beta  occ. eigenvalues --   -0.76784  -0.73026  -0.72214  -0.71699  -0.71183
  Beta  occ. eigenvalues --   -0.70960  -0.69649  -0.69215  -0.68886  -0.68857
  Beta  occ. eigenvalues --   -0.68335  -0.67934  -0.67757  -0.67404  -0.66702
  Beta  occ. eigenvalues --   -0.66675  -0.66227  -0.66099  -0.66071  -0.65334
  Beta  occ. eigenvalues --   -0.65271  -0.65215  -0.65201  -0.64951  -0.64656
  Beta  occ. eigenvalues --   -0.63263  -0.63167  -0.63091  -0.62975  -0.62809
  Beta  occ. eigenvalues --   -0.62649  -0.62641  -0.62079  -0.61583  -0.61117
  Beta  occ. eigenvalues --   -0.60905  -0.59254  -0.58818  -0.58410  -0.58004
  Beta  occ. eigenvalues --   -0.57257  -0.56773  -0.56495  -0.56164  -0.56057
  Beta  occ. eigenvalues --   -0.55978  -0.55925  -0.55728  -0.55680  -0.55598
  Beta  occ. eigenvalues --   -0.55530  -0.55464  -0.55387  -0.55325  -0.55139
  Beta  occ. eigenvalues --   -0.55084  -0.54846  -0.54830  -0.54701  -0.54682
  Beta  occ. eigenvalues --   -0.54458  -0.54391  -0.54337  -0.54285  -0.54242
  Beta  occ. eigenvalues --   -0.54105  -0.53995  -0.53845  -0.53717  -0.53506
  Beta  occ. eigenvalues --   -0.53429  -0.53314  -0.53133  -0.53067  -0.52920
  Beta  occ. eigenvalues --   -0.52726  -0.52597  -0.52555  -0.51519  -0.51094
  Beta  occ. eigenvalues --   -0.50332  -0.49917  -0.49666  -0.49622  -0.49254
  Beta  occ. eigenvalues --   -0.48977  -0.48710  -0.48521  -0.48323  -0.48120
  Beta  occ. eigenvalues --   -0.47593  -0.47585  -0.47390  -0.47317  -0.47077
  Beta  occ. eigenvalues --   -0.46931  -0.46844  -0.46767  -0.46718  -0.46563
  Beta  occ. eigenvalues --   -0.46464  -0.46425  -0.46278  -0.46168  -0.46032
  Beta  occ. eigenvalues --   -0.45860  -0.45781  -0.45674  -0.45647  -0.45497
  Beta  occ. eigenvalues --   -0.45412  -0.45340  -0.45071  -0.44931  -0.44753
  Beta  occ. eigenvalues --   -0.44651  -0.44296  -0.44200  -0.43934  -0.43733
  Beta  occ. eigenvalues --   -0.43546  -0.43165  -0.42805  -0.42376  -0.42284
  Beta  occ. eigenvalues --   -0.41935  -0.41596  -0.41582  -0.40202  -0.39993
  Beta  occ. eigenvalues --   -0.38960  -0.38133  -0.37140  -0.36258  -0.35131
  Beta  occ. eigenvalues --   -0.34569  -0.34517  -0.34351  -0.34306  -0.34270
  Beta  occ. eigenvalues --   -0.34174  -0.34095  -0.34059  -0.33912  -0.33878
  Beta  occ. eigenvalues --   -0.33834  -0.33713  -0.33567  -0.33484  -0.32198
  Beta  occ. eigenvalues --   -0.30784  -0.29717  -0.28480  -0.27391  -0.26283
  Beta  occ. eigenvalues --   -0.25897
  Beta virt. eigenvalues --   -0.03526  -0.03031  -0.02029  -0.01012   0.00192
  Beta virt. eigenvalues --    0.01066   0.02872   0.03331   0.04440   0.05185
  Beta virt. eigenvalues --    0.05341   0.06046   0.06157   0.06182   0.06389

 Mulliken charges and spin densities:
               1          2
     1  C   -0.126578  -0.000000
     2  C    0.068499   0.000000
     3  C    0.096826   0.000000
     4  F   -0.121173  -0.000000
     5  C   -0.144161   0.000000
     6  S    0.185362  -0.000000
     7  C   -0.117891  -0.000000
     8  C    0.115781   0.000000
     9  F   -0.119775   0.000000
    10  C    0.048944  -0.000000
    11  C   -0.123132   0.000000
    12  S    0.198145  -0.000000
    13  C   -0.119301  -0.000000
    14  C    0.050639   0.000000
    15  C    0.115136  -0.000000
    16  F   -0.118086   0.000000
    17  C   -0.131924  -0.000000
    18  S    0.199761   0.000000
    19  C   -0.130527   0.000000
    20  C    0.115162   0.000000
    21  F   -0.117590  -0.000000
    22  C    0.050892   0.000000
    23  C   -0.121402  -0.000000
    24  S    0.199702   0.000000
    25  C   -0.120475   0.000000
    26  C    0.050773   0.000000
    27  C    0.115404   0.000000
    28  F   -0.117906  -0.000000
    29  C   -0.131405  -0.000000
    30  S    0.200462  -0.000000
    31  C   -0.130745   0.000000
    32  C    0.115334   0.000000
    33  F   -0.117216   0.000000
    34  C    0.052066   0.000000
    35  C   -0.122699  -0.000000
    36  S    0.199260  -0.000000
    37  C   -0.115059   0.000000
    38  C    0.036719   0.000000
    39  C    0.140375  -0.000000
    40  F   -0.106064   0.000000
    41  C   -0.161608   0.000000
    42  S    0.200236   0.000000
    43  C   -0.159414  -0.000000
    44  C    0.139412  -0.000000
    45  F   -0.105772   0.000000
    46  C    0.035501   0.000000
    47  C   -0.115452  -0.000000
    48  S    0.194509  -0.000000
    49  C   -0.116092   0.000000
    50  C    0.035221   0.000000
    51  C    0.138770   0.000000
    52  F   -0.105208  -0.000000
    53  C   -0.159535   0.000000
    54  S    0.194764  -0.000000
    55  C   -0.159777  -0.000000
    56  C    0.140340  -0.000000
    57  F   -0.105471  -0.000000
    58  C    0.034784   0.000000
    59  C   -0.114474  -0.000000
    60  S    0.190750  -0.000000
    61  C   -0.122319   0.000000
    62  C    0.050489   0.000000
    63  C    0.113026  -0.000000
    64  F   -0.116819   0.000000
    65  C   -0.129165   0.000000
    66  S    0.194027  -0.000000
    67  C   -0.130732  -0.000000
    68  C    0.114679   0.000000
    69  F   -0.118800   0.000000
    70  C    0.050689  -0.000000
    71  C   -0.119143   0.000000
    72  S    0.200469   0.000000
    73  C   -0.123231   0.000000
    74  C    0.048965  -0.000000
    75  C    0.115827   0.000000
    76  F   -0.119698  -0.000000
    77  C   -0.117782  -0.000000
    78  S    0.198350   0.000000
    79  C   -0.144240   0.000000
    80  C    0.096902   0.000000
    81  F   -0.121111  -0.000000
    82  C    0.068558  -0.000000
    83  C   -0.126513   0.000000
    84  S    0.185477   0.000000
    85  H    0.035086  -0.000000
    86  H    0.007524   0.000000
    87  H    0.001499  -0.000000
    88  H    0.002440  -0.000000
    89  H    0.002724   0.000000
    90  H    0.003023   0.000000
    91  H    0.003883  -0.000000
    92  H    0.004150   0.000000
    93  H    0.009758   0.000000
    94  H    0.010898   0.000000
    95  H    0.011297  -0.000000
    96  H    0.009393  -0.000000
    97  H    0.002497   0.000000
    98  H    0.001485   0.000000
    99  H    0.007633   0.000000
   100  H    0.035181  -0.000000
 Sum of Mulliken charges =  -0.00000  -0.00000

 Dipole moment (field-independent basis, Debye):
    X=              0.0294    Y=             -0.2622    Z=             -0.4074  Tot=              0.4853
 Quadrupole moment (field-independent basis, Debye-Ang):
   XX=           -398.8008   YY=           -551.3611   ZZ=           -554.5586
   XY=            -11.8342   XZ=             21.7835   YZ=             -7.1993

 Normal termination of Gaussian 16 at Sat Jul 25 04:48:20 2020.
