 Gaussian 16, Revision A.03,
 Gaussian 16:  EM64L-G16RevA.03 25-Dec-2016

 ---------------------------------------------------------------
 #P uLC-wPBE/cc-pVDZ iop(3/107=0471700000, 3/108=0471700000) opt
 ---------------------------------------------------------------

 -----------
 H7 C9 S1 N1
 -----------
 Symbolic Z-matrix:
 Charge =  0 Multiplicity = 1

 SCF Done:  E(ULC-wPBE) =  -799.698505847     A.U. after   16 cycles
 SCF Done:  E(ULC-wPBE) =  -799.722095140     A.U. after   14 cycles
 SCF Done:  E(ULC-wPBE) =  -799.724496164     A.U. after   14 cycles
 SCF Done:  E(ULC-wPBE) =  -799.724631298     A.U. after   12 cycles
 SCF Done:  E(ULC-wPBE) =  -799.724626365     A.U. after   11 cycles
 SCF Done:  E(ULC-wPBE) =  -799.724663757     A.U. after   11 cycles
 SCF Done:  E(ULC-wPBE) =  -799.724666397     A.U. after    9 cycles
 SCF Done:  E(ULC-wPBE) =  -799.724666532     A.U. after    8 cycles
 SCF Done:  E(ULC-wPBE) =  -799.724666592     A.U. after    8 cycles
 SCF Done:  E(ULC-wPBE) =  -799.724666630     A.U. after    8 cycles
 Optimization completed.
    -- Stationary point found.

                         Standard orientation:
 ---------------------------------------------------------------------
 Center     Atomic      Atomic             Coordinates (Angstroms)
 Number     Number       Type             X           Y           Z
 ---------------------------------------------------------------------
      1          6           0        3.408708   -0.180506    0.000111
      2          6           0        2.895090    1.106132   -0.000572
      3          6           0        1.525882    1.283465   -0.000670
      4          6           0        0.705784    0.157756    0.000027
      5          7           0        1.196548   -1.078829    0.000644
      6          6           0        2.511677   -1.234583    0.000678
      7          6           0       -0.759633    0.263687    0.000104
      8          6           0       -1.551558    1.373407    0.000720
      9          6           0       -2.936356    1.060277    0.000556
     10          6           0       -3.155486   -0.280156   -0.000163
     11         16           0       -1.702372   -1.172745   -0.000621
     12          1           0        4.480087   -0.365712    0.000145
     13          1           0        3.559183    1.968893   -0.001102
     14          1           0        1.096676    2.281719   -0.001362
     15          1           0        2.869593   -2.265345    0.001126
     16          1           0       -1.166753    2.389278    0.001336
     17          1           0       -3.729103    1.802976    0.000956
     18          1           0       -4.112216   -0.792954   -0.000408
 ---------------------------------------------------------------------

 The electronic state is 1-A.
 Alpha  occ. eigenvalues --  -88.35266 -14.25488 -10.21494 -10.20009 -10.18937
 Alpha  occ. eigenvalues --  -10.18715 -10.18401 -10.17410 -10.17148 -10.16507
 Alpha  occ. eigenvalues --  -10.16159  -7.96169  -5.97357  -5.96796  -5.96451
 Alpha  occ. eigenvalues --   -1.14005  -1.07223  -0.99048  -0.96479  -0.90902
 Alpha  occ. eigenvalues --   -0.89078  -0.80223  -0.79629  -0.71477  -0.70771
 Alpha  occ. eigenvalues --   -0.67887  -0.64246  -0.63150  -0.59864  -0.57231
 Alpha  occ. eigenvalues --   -0.55946  -0.54641  -0.52535  -0.52448  -0.50422
 Alpha  occ. eigenvalues --   -0.49790  -0.46728  -0.41828  -0.40257  -0.38978
 Alpha  occ. eigenvalues --   -0.36133  -0.32553
 Alpha virt. eigenvalues --    0.03094   0.06414   0.11685   0.15355   0.15834
 Alpha virt. eigenvalues --    0.17431   0.17888   0.19154   0.20970   0.21851
 Alpha virt. eigenvalues --    0.23311   0.25363   0.28238   0.28415   0.33214

  Beta  occ. eigenvalues --  -88.35266 -14.25488 -10.21494 -10.20009 -10.18937
  Beta  occ. eigenvalues --  -10.18715 -10.18401 -10.17410 -10.17148 -10.16507
  Beta  occ. eigenvalues --  -10.16159  -7.96169  -5.97357  -5.96796  -5.96451
  Beta  occ. eigenvalues --   -1.14005  -1.07223  -0.99048  -0.96479  -0.90902
  Beta  occ. eigenvalues --   -0.89078  -0.80223  -0.79629  -0.71477  -0.70771
  Beta  occ. eigenvalues --   -0.67887  -0.64246  -0.63150  -0.59864  -0.57231
  Beta  occ. eigenvalues --   -0.55946  -0.54641  -0.52535  -0.52448  -0.50422
  Beta  occ. eigenvalues --   -0.49790  -0.46728  -0.41828  -0.40257  -0.38978
  Beta  occ. eigenvalues --   -0.36133  -0.32553
  Beta virt. eigenvalues --    0.03094   0.06414   0.11685   0.15355   0.15834
  Beta virt. eigenvalues --    0.17431   0.17888   0.19154   0.20970   0.21851
  Beta virt. eigenvalues --    0.23311   0.25363   0.28238   0.28415   0.33214

 Mulliken charges and spin densities:
               1          2
     1  C   -0.079895  -0.000000
     2  C    0.056808  -0.000000
     3  C   -0.042179   0.000000
     4  C    0.147888  -0.000000
     5  N   -0.229803  -0.000000
     6  C    0.089826   0.000000
     7  C   -0.159184   0.000000
     8  C   -0.045399  -0.000000
     9  C    0.039284   0.000000
    10  C   -0.158091  -0.000000
    11  S    0.202405   0.000000
    12  H    0.022563  -0.000000
    13  H    0.026071   0.000000
    14  H    0.018418  -0.000000
    15  H    0.032214  -0.000000
    16  H    0.014668  -0.000000
    17  H    0.016224   0.000000
    18  H    0.048182  -0.000000
 Sum of Mulliken charges =  -0.00000   0.00000

 Dipole moment (field-independent basis, Debye):
    X=              1.1244    Y=              1.8866    Z=             -0.0007  Tot=              2.1963
 Quadrupole moment (field-independent basis, Debye-Ang):
   XX=            -54.5616   YY=            -64.4387   ZZ=            -74.6048
   XY=              0.3956   XZ=             -0.0013   YZ=              0.0004

 Normal termination of Gaussian 16 at Fri Jul 24 12:52:21 2020.
