 Gaussian 16, Revision A.03,
 Gaussian 16:  EM64L-G16RevA.03 25-Dec-2016

 ---------------------------------------------------------------
 #P uLC-wPBE/cc-pVDZ iop(3/107=0162100000, 3/108=0162100000) opt
 ---------------------------------------------------------------

 --------------
 H58 C77 N14 O7
 --------------
 Symbolic Z-matrix:
 Charge =  0 Multiplicity = 1

 SCF Done:  E(ULC-wPBE) =  -4258.11981137     A.U. after   15 cycles
 SCF Done:  E(ULC-wPBE) =  -4258.22819632     A.U. after   13 cycles
 SCF Done:  E(ULC-wPBE) =  -4258.34911960     A.U. after   14 cycles
 SCF Done:  E(ULC-wPBE) =  -4258.39218362     A.U. after   14 cycles
 SCF Done:  E(ULC-wPBE) =  -4258.40273202     A.U. after   15 cycles
 SCF Done:  E(ULC-wPBE) =  -4258.40789908     A.U. after   16 cycles
 SCF Done:  E(ULC-wPBE) =  -4258.41124482     A.U. after   16 cycles
 SCF Done:  E(ULC-wPBE) =  -4258.41376793     A.U. after   15 cycles
 SCF Done:  E(ULC-wPBE) =  -4258.41595518     A.U. after   14 cycles
 SCF Done:  E(ULC-wPBE) =  -4258.41671013     A.U. after   13 cycles
 SCF Done:  E(ULC-wPBE) =  -4258.41838319     A.U. after   13 cycles
 SCF Done:  E(ULC-wPBE) =  -4258.41838375     A.U. after   10 cycles
 SCF Done:  E(ULC-wPBE) =  -4258.41838551     A.U. after   11 cycles
 SCF Done:  E(ULC-wPBE) =  -4258.41838591     A.U. after   10 cycles
 SCF Done:  E(ULC-wPBE) =  -4258.41838601     A.U. after    7 cycles
 SCF Done:  E(ULC-wPBE) =  -4258.41838610     A.U. after    7 cycles
 SCF Done:  E(ULC-wPBE) =  -4258.41838607     A.U. after    6 cycles
 SCF Done:  E(ULC-wPBE) =  -4258.41838603     A.U. after    6 cycles
 SCF Done:  E(ULC-wPBE) =  -4258.41838611     A.U. after    6 cycles
 SCF Done:  E(ULC-wPBE) =  -4258.41838605     A.U. after    6 cycles
 Optimization completed on the basis of negligible forces.
    -- Stationary point found.

                         Standard orientation:
 ---------------------------------------------------------------------
 Center     Atomic      Atomic             Coordinates (Angstroms)
 Number     Number       Type             X           Y           Z
 ---------------------------------------------------------------------
      1          6           0       28.840393   -2.631816   -0.754113
      2          6           0       28.512485   -1.293088   -0.990198
      3          6           0       27.178426   -0.894806   -0.865024
      4          6           0       26.211179   -1.856931   -0.517911
      5          7           0       26.518625   -3.150966   -0.290495
      6          6           0       27.805253   -3.510035   -0.405545
      7          6           0       24.751622   -1.521365   -0.427860
      8          7           0       23.908654   -2.433830   -0.934561
      9          6           0       22.589757   -2.212877   -0.868199
     10          6           0       22.012797   -1.074687   -0.277494
     11          6           0       22.892297   -0.115143    0.256810
     12          6           0       24.274689   -0.327037    0.180316
     13          8           0       25.208359    0.535521    0.681941
     14          6           0       24.739826    1.697431    1.358428
     15          6           0       20.543005   -0.889845   -0.223436
     16          6           0       19.934051    0.361999   -0.431987
     17          6           0       18.546456    0.471342   -0.370929
     18          6           0       17.780206   -0.681856   -0.115284
     19          7           0       18.345074   -1.886872    0.105023
     20          6           0       19.680925   -1.970297    0.053509
     21          6           0       16.291595   -0.570487   -0.052001
     22          7           0       15.819961    0.648460    0.289508
     23          6           0       14.501395    0.836292    0.385778
     24          6           0       13.538184   -0.165683    0.146666
     25          6           0       14.030501   -1.417693   -0.251692
     26          6           0       15.410084   -1.634250   -0.367965
     27          8           0       15.853888   -2.831534   -0.869616
     28          6           0       15.948056   -3.888418    0.093550
     29          6           0       12.087578    0.108185    0.278994
     30          6           0       11.570193    0.911642    1.310168
     31          6           0       10.194582    1.134176    1.385394
     32          6           0        9.352082    0.551184    0.420309
     33          7           0        9.831210   -0.215761   -0.581788
     34          6           0       11.151292   -0.420048   -0.634707
     35          6           0        7.871086    0.781212    0.403171
     36          7           0        7.316576    0.929058   -0.810376
     37          6           0        5.997655    1.133522   -0.905312
     38          6           0        5.130936    1.207828    0.200096
     39          6           0        5.704348    1.038043    1.473271
     40          6           0        7.083508    0.819045    1.587168
     41          8           0        7.729210    0.634586    2.777114
     42          6           0        6.936528    0.584608    3.959902
     43          6           0        3.677177    1.443291    0.031458
     44          6           0        3.170257    2.330893   -0.933950
     45          6           0        1.791205    2.514244   -1.044456
     46          6           0        0.933290    1.802277   -0.185350
     47          7           0        1.400369    0.938288    0.740529
     48          6           0        2.724325    0.777061    0.830703
     49          6           0       -0.559545    1.910059   -0.267575
     50          7           0       -1.238797    0.767058   -0.084364
     51          6           0       -2.576611    0.788193   -0.119703
     52          6           0       -3.338849    1.952605   -0.324310
     53          6           0       -2.631945    3.153777   -0.515129
     54          6           0       -1.231377    3.143284   -0.494923
     55          8           0       -0.458200    4.259442   -0.653536
     56          6           0       -1.122950    5.509133   -0.807196
     57          6           0       -4.820502    1.916484   -0.341737
     58          6           0       -5.580473    2.675669   -1.248599
     59          6           0       -6.973437    2.601365   -1.213857
     60          6           0       -7.589710    1.749308   -0.278083
     61          7           0       -6.878016    1.016667    0.603829
     62          6           0       -5.544960    1.114204    0.565580
     63          6           0       -9.074684    1.551083   -0.229346
     64          7           0       -9.488585    0.296456    0.006448
     65          6           0      -10.801056    0.042051    0.069740
     66          6           0      -11.799971    1.018717   -0.095054
     67          6           0      -11.371213    2.338365   -0.326488
     68          6           0      -10.000417    2.618183   -0.395362
     69          8           0       -9.486799    3.866816   -0.610322
     70          6           0      -10.404560    4.951565   -0.705617
     71          6           0      -13.239868    0.675547   -0.021068
     72          6           0      -14.180651    1.509040    0.613655
     73          6           0      -15.519972    1.130070    0.652869
     74          6           0      -15.903511   -0.093292    0.065334
     75          7           0      -15.020570   -0.898582   -0.559481
     76          6           0      -13.739791   -0.510217   -0.596421
     77          6           0      -17.344590   -0.492459    0.104981
     78          7           0      -18.210136    0.522398    0.276492
     79          6           0      -19.526083    0.285657    0.300070
     80          6           0      -20.086185   -0.994598    0.145242
     81          6           0      -19.190568   -2.068081    0.000431
     82          6           0      -17.805358   -1.838882   -0.006159
     83          8           0      -16.882068   -2.827982   -0.093953
     84          6           0      -17.348752   -4.169057   -0.176960
     85          6           0      -21.553606   -1.202336    0.151623
     86          6           0      -22.155401   -2.302584    0.787074
     87          6           0      -23.543471   -2.441547    0.758068
     88          6           0      -24.315750   -1.461940    0.106245
     89          7           0      -23.756934   -0.402326   -0.514381
     90          6           0      -22.424043   -0.296132   -0.490647
     91          6           0      -25.815495   -1.493595    0.102766
     92          7           0      -26.420832   -0.306721    0.265791
     93          6           0      -27.761559   -0.257047    0.259873
     94          6           0      -28.568832   -1.383374    0.082876
     95          6           0      -27.954850   -2.627844   -0.096902
     96          6           0      -26.553547   -2.695224   -0.085608
     97          8           0      -25.839805   -3.848250   -0.260600
     98          6           0      -26.569861   -5.041606   -0.525253
     99          1           0       29.874549   -2.992609   -0.836965
    100          1           0       29.285823   -0.564640   -1.271952
    101          1           0       26.882864    0.146480   -1.038098
    102          1           0       28.023798   -4.572233   -0.205269
    103          1           0       21.948832   -2.978914   -1.332987
    104          1           0       22.485793    0.773471    0.754961
    105          1           0       24.119958    1.434515    2.241869
    106          1           0       25.643577    2.233708    1.695476
    107          1           0       24.152655    2.358168    0.685138
    108          1           0       20.548766    1.243495   -0.664644
    109          1           0       18.031051    1.427907   -0.517445
    110          1           0       20.107074   -2.963302    0.270518
    111          1           0       14.178833    1.856904    0.648564
    112          1           0       13.351322   -2.249000   -0.487079
    113          1           0       14.981927   -4.041788    0.621974
    114          1           0       16.198687   -4.801424   -0.475940
    115          1           0       16.756549   -3.668794    0.819277
    116          1           0       12.241750    1.345788    2.064329
    117          1           0        9.771941    1.748229    2.188525
    118          1           0       11.503615   -1.037503   -1.478283
    119          1           0        5.597500    1.224439   -1.927865
    120          1           0        5.069669    1.099557    2.365346
    121          1           0        7.641324    0.383739    4.785012
    122          1           0        6.417332    1.548305    4.149496
    123          1           0        6.184789   -0.231488    3.913064
    124          1           0        3.856115    2.891087   -1.584843
    125          1           0        1.378962    3.208864   -1.784850
    126          1           0        3.063347    0.046167    1.584537
    127          1           0       -3.077576   -0.185276    0.001793
    128          1           0       -3.185668    4.091337   -0.646972
    129          1           0       -0.324056    6.265263   -0.896956
    130          1           0       -1.751925    5.531838   -1.722860
    131          1           0       -1.754793    5.747528    0.074705
    132          1           0       -5.080262    3.304177   -1.999525
    133          1           0       -7.581976    3.183529   -1.915060
    134          1           0       -5.001263    0.527726    1.324896
    135          1           0      -11.079940   -1.001303    0.286780
    136          1           0      -12.115380    3.130867   -0.471790
    137          1           0       -9.787282    5.856711   -0.838785
    138          1           0      -11.084417    4.841765   -1.577432
    139          1           0      -11.011579    5.055599    0.218748
    140          1           0      -13.856013    2.442035    1.096806
    141          1           0      -16.287057    1.753014    1.127430
    142          1           0      -13.054379   -1.178092   -1.144297
    143          1           0      -20.174128    1.159717    0.469286
    144          1           0      -19.585176   -3.083500   -0.125469
    145          1           0      -17.946895   -4.455640    0.715020
    146          1           0      -16.441885   -4.795930   -0.223942
    147          1           0      -17.955833   -4.338428   -1.092002
    148          1           0      -21.538722   -3.035428    1.327080
    149          1           0      -24.030519   -3.291289    1.249840
    150          1           0      -22.003711    0.563021   -1.039655
    151          1           0      -28.208678    0.739258    0.403950
    152          1           0      -29.663917   -1.296594    0.082120
    153          1           0      -28.564264   -3.526900   -0.247743
    154          1           0      -25.813059   -5.833137   -0.662802
    155          1           0      -27.234542   -5.315442    0.322026
    156          1           0      -27.177683   -4.952398   -1.450716
 ---------------------------------------------------------------------

 Alpha virt. eigenvalues --    0.36814   0.36886   0.36990   0.37082   0.37687
 Alpha virt. eigenvalues --    0.37816   0.38372   0.38508   0.38627   0.38915
 Alpha virt. eigenvalues --    0.39198   0.39553   0.39766   0.40077   0.40364

  Beta  occ. eigenvalues --  -18.90718 -18.90712 -18.90709 -18.90597 -18.90546
  Beta  occ. eigenvalues --  -18.89812 -18.87129 -14.09198 -14.09017 -14.09012
  Beta  occ. eigenvalues --  -14.08484 -14.08478 -14.08463 -14.08446 -14.08390
  Beta  occ. eigenvalues --  -14.08347 -14.08290 -14.08287 -14.08266 -14.08233
  Beta  occ. eigenvalues --  -14.07806 -10.06304 -10.06286 -10.06279 -10.06248
  Beta  occ. eigenvalues --  -10.06239 -10.06177 -10.05898 -10.05855 -10.05834
  Beta  occ. eigenvalues --  -10.05687 -10.05643 -10.05242 -10.05100 -10.03216
  Beta  occ. eigenvalues --  -10.03107 -10.03048 -10.03037 -10.02970 -10.02965
  Beta  occ. eigenvalues --  -10.02956 -10.02930 -10.02920 -10.02877 -10.02862
  Beta  occ. eigenvalues --  -10.02847 -10.02803 -10.02743 -10.02605 -10.02563
  Beta  occ. eigenvalues --  -10.02499 -10.02278 -10.02267 -10.02244 -10.02175
  Beta  occ. eigenvalues --  -10.02155 -10.01884 -10.01726 -10.01665 -10.01636
  Beta  occ. eigenvalues --  -10.01631 -10.01622 -10.01610 -10.01581 -10.01540
  Beta  occ. eigenvalues --  -10.01428 -10.01426 -10.01418 -10.01412 -10.01395
  Beta  occ. eigenvalues --  -10.01260 -10.01225 -10.01203 -10.01173 -10.01158
  Beta  occ. eigenvalues --  -10.01151 -10.01150 -10.01093 -10.01080 -10.01053
  Beta  occ. eigenvalues --  -10.01031 -10.01024 -10.00994 -10.00963 -10.00955
  Beta  occ. eigenvalues --  -10.00919 -10.00916 -10.00831 -10.00635 -10.00515
  Beta  occ. eigenvalues --  -10.00197 -10.00102 -10.00058 -10.00036 -10.00014
  Beta  occ. eigenvalues --   -9.99747  -9.99684  -9.99636  -1.08779  -1.08776
  Beta  occ. eigenvalues --   -1.08761  -1.08657  -1.08628  -1.08275  -1.05588
  Beta  occ. eigenvalues --   -0.96467  -0.96325  -0.96286  -0.96205  -0.96131
  Beta  occ. eigenvalues --   -0.96078  -0.95922  -0.94928  -0.94641  -0.94407
  Beta  occ. eigenvalues --   -0.94218  -0.94162  -0.94038  -0.93861  -0.85521
  Beta  occ. eigenvalues --   -0.85401  -0.85272  -0.85136  -0.84911  -0.84657
  Beta  occ. eigenvalues --   -0.82404  -0.81901  -0.81759  -0.81752  -0.81683
  Beta  occ. eigenvalues --   -0.81535  -0.81480  -0.81313  -0.81241  -0.81123
  Beta  occ. eigenvalues --   -0.81029  -0.80856  -0.80576  -0.80237  -0.80062
  Beta  occ. eigenvalues --   -0.78731  -0.78198  -0.77563  -0.76965  -0.76370
  Beta  occ. eigenvalues --   -0.75874  -0.75500  -0.74174  -0.73988  -0.73924
  Beta  occ. eigenvalues --   -0.73741  -0.73439  -0.73007  -0.71641  -0.70760
  Beta  occ. eigenvalues --   -0.70034  -0.69312  -0.68458  -0.67602  -0.67373
  Beta  occ. eigenvalues --   -0.67164  -0.67052  -0.66892  -0.66621  -0.66104
  Beta  occ. eigenvalues --   -0.66031  -0.65589  -0.65307  -0.64775  -0.64599
  Beta  occ. eigenvalues --   -0.64503  -0.64207  -0.63904  -0.63616  -0.63490
  Beta  occ. eigenvalues --   -0.63282  -0.63115  -0.62742  -0.62461  -0.62298
  Beta  occ. eigenvalues --   -0.62029  -0.61761  -0.58339  -0.58251  -0.58156
  Beta  occ. eigenvalues --   -0.58124  -0.57983  -0.57794  -0.56979  -0.56142
  Beta  occ. eigenvalues --   -0.55928  -0.55881  -0.55722  -0.55578  -0.55457
  Beta  occ. eigenvalues --   -0.55382  -0.55298  -0.55168  -0.54877  -0.54585
  Beta  occ. eigenvalues --   -0.54295  -0.54223  -0.54180  -0.52580  -0.52532
  Beta  occ. eigenvalues --   -0.52384  -0.52154  -0.52132  -0.52031  -0.51958
  Beta  occ. eigenvalues --   -0.51910  -0.51875  -0.51665  -0.51528  -0.51400
  Beta  occ. eigenvalues --   -0.51254  -0.51131  -0.50961  -0.50854  -0.50719
  Beta  occ. eigenvalues --   -0.50667  -0.50446  -0.50237  -0.49619  -0.49463
  Beta  occ. eigenvalues --   -0.49105  -0.48903  -0.48753  -0.48700  -0.48621
  Beta  occ. eigenvalues --   -0.48452  -0.47774  -0.47577  -0.47435  -0.47374
  Beta  occ. eigenvalues --   -0.47337  -0.47005  -0.46930  -0.46557  -0.46465
  Beta  occ. eigenvalues --   -0.46349  -0.46208  -0.46137  -0.46060  -0.45816
  Beta  occ. eigenvalues --   -0.45796  -0.45645  -0.45610  -0.45411  -0.45108
  Beta  occ. eigenvalues --   -0.44958  -0.44876  -0.44843  -0.44694  -0.44562
  Beta  occ. eigenvalues --   -0.44514  -0.44480  -0.44136  -0.44000  -0.43824
  Beta  occ. eigenvalues --   -0.43771  -0.43676  -0.43657  -0.43520  -0.43253
  Beta  occ. eigenvalues --   -0.43224  -0.43071  -0.43036  -0.42620  -0.42612
  Beta  occ. eigenvalues --   -0.42325  -0.42196  -0.42089  -0.41916  -0.41450
  Beta  occ. eigenvalues --   -0.41399  -0.41170  -0.41005  -0.40790  -0.40747
  Beta  occ. eigenvalues --   -0.40383  -0.38989  -0.38864  -0.38849  -0.38832
  Beta  occ. eigenvalues --   -0.38783  -0.38691  -0.38580  -0.38348  -0.38232
  Beta  occ. eigenvalues --   -0.38184  -0.37974  -0.37906  -0.37886  -0.37018
  Beta  occ. eigenvalues --   -0.36904  -0.36351  -0.35797  -0.35250  -0.34815
  Beta  occ. eigenvalues --   -0.33847  -0.33827  -0.33429  -0.33407  -0.33341
  Beta  occ. eigenvalues --   -0.33276  -0.33214  -0.33122  -0.32447  -0.31951
  Beta  occ. eigenvalues --   -0.31470  -0.31280  -0.31141  -0.30915  -0.30809
  Beta  occ. eigenvalues --   -0.30705  -0.30183  -0.30026  -0.29693  -0.29412
  Beta  occ. eigenvalues --   -0.29265  -0.29230  -0.29043  -0.28974  -0.28733
  Beta  occ. eigenvalues --   -0.28671  -0.28619  -0.28505  -0.28403  -0.28327
  Beta  occ. eigenvalues --   -0.28279  -0.28102  -0.27908  -0.27403  -0.26830
  Beta  occ. eigenvalues --   -0.26274  -0.25873
  Beta virt. eigenvalues --   -0.03096  -0.02776  -0.01961  -0.00940  -0.00057
  Beta virt. eigenvalues --    0.00724   0.01392   0.01582   0.02031   0.02155
  Beta virt. eigenvalues --    0.02165   0.02222   0.02294   0.02470   0.02766

 Mulliken charges and spin densities:
               1          2
     1  C   -0.026015  -0.000000
     2  C    0.066073   0.000000
     3  C    0.029495  -0.000000
     4  C    0.069222   0.000000
     5  N   -0.169930  -0.000000
     6  C    0.085395   0.000000
     7  C    0.040700  -0.000000
     8  N   -0.159066  -0.000000
     9  C    0.075146   0.000000
    10  C   -0.046953  -0.000000
    11  C    0.024983  -0.000000
    12  C    0.118023   0.000000
    13  O   -0.240473  -0.000000
    14  C    0.062095  -0.000000
    15  C   -0.047512  -0.000000
    16  C    0.065187   0.000000
    17  C    0.047094   0.000000
    18  C    0.082864  -0.000000
    19  N   -0.192462   0.000000
    20  C    0.093676  -0.000000
    21  C    0.062872  -0.000000
    22  N   -0.198867  -0.000000
    23  C    0.080522  -0.000000
    24  C   -0.038341   0.000000
    25  C    0.118166  -0.000000
    26  C    0.040055   0.000000
    27  O   -0.243907  -0.000000
    28  C    0.076938  -0.000000
    29  C   -0.046705  -0.000000
    30  C    0.061540  -0.000000
    31  C    0.041923   0.000000
    32  C    0.075795  -0.000000
    33  N   -0.165692  -0.000000
    34  C    0.083448   0.000000
    35  C    0.035433   0.000000
    36  N   -0.159069  -0.000000
    37  C    0.074009  -0.000000
    38  C   -0.042865   0.000000
    39  C    0.026279   0.000000
    40  C    0.117948  -0.000000
    41  O   -0.242747   0.000000
    42  C    0.061133  -0.000000
    43  C   -0.046181  -0.000000
    44  C    0.061716   0.000000
    45  C    0.042614  -0.000000
    46  C    0.075306   0.000000
    47  N   -0.166550  -0.000000
    48  C    0.081223   0.000000
    49  C    0.036883   0.000000
    50  N   -0.158957  -0.000000
    51  C    0.076314   0.000000
    52  C   -0.044803   0.000000
    53  C    0.025453   0.000000
    54  C    0.117088  -0.000000
    55  O   -0.242500   0.000000
    56  C    0.062445   0.000000
    57  C   -0.047221  -0.000000
    58  C    0.058600  -0.000000
    59  C    0.040767   0.000000
    60  C    0.076220  -0.000000
    61  N   -0.166054   0.000000
    62  C    0.086172  -0.000000
    63  C    0.036134   0.000000
    64  N   -0.159023  -0.000000
    65  C    0.075658   0.000000
    66  C   -0.045477  -0.000000
    67  C    0.027258   0.000000
    68  C    0.117885  -0.000000
    69  O   -0.243175  -0.000000
    70  C    0.062131  -0.000000
    71  C   -0.044786   0.000000
    72  C    0.059463  -0.000000
    73  C    0.055891   0.000000
    74  C    0.058656   0.000000
    75  N   -0.178479  -0.000000
    76  C    0.080811   0.000000
    77  C    0.054813   0.000000
    78  N   -0.191166   0.000000
    79  C    0.079624  -0.000000
    80  C   -0.046005  -0.000000
    81  C    0.020743   0.000000
    82  C    0.120190  -0.000000
    83  O   -0.203099   0.000000
    84  C    0.060244  -0.000000
    85  C   -0.047552   0.000000
    86  C    0.058840  -0.000000
    87  C    0.041818   0.000000
    88  C    0.079485  -0.000000
    89  N   -0.166458  -0.000000
    90  C    0.085700  -0.000000
    91  C    0.029501   0.000000
    92  N   -0.162896   0.000000
    93  C    0.080244  -0.000000
    94  C   -0.019818   0.000000
    95  C    0.018700   0.000000
    96  C    0.112772  -0.000000
    97  O   -0.241051  -0.000000
    98  C    0.059793   0.000000
    99  H   -0.014283   0.000000
   100  H   -0.012201   0.000000
   101  H   -0.021963  -0.000000
   102  H   -0.001010  -0.000000
   103  H   -0.004372   0.000000
   104  H   -0.019560   0.000000
   105  H    0.050661   0.000000
   106  H    0.053134  -0.000000
   107  H    0.045181   0.000000
   108  H   -0.021940  -0.000000
   109  H   -0.014752  -0.000000
   110  H   -0.002092  -0.000000
   111  H   -0.005961  -0.000000
   112  H   -0.018062  -0.000000
   113  H    0.021254   0.000000
   114  H    0.044023   0.000000
   115  H    0.036603  -0.000000
   116  H   -0.020002  -0.000000
   117  H   -0.021542  -0.000000
   118  H   -0.001312   0.000000
   119  H   -0.006461  -0.000000
   120  H   -0.016409   0.000000
   121  H    0.053271   0.000000
   122  H    0.049310   0.000000
   123  H    0.050491   0.000000
   124  H   -0.018426   0.000000
   125  H   -0.021714  -0.000000
   126  H   -0.006587   0.000000
   127  H   -0.001992  -0.000000
   128  H   -0.020952   0.000000
   129  H    0.053192   0.000000
   130  H    0.045328  -0.000000
   131  H    0.050331  -0.000000
   132  H   -0.025135  -0.000000
   133  H   -0.022768  -0.000000
   134  H    0.000263   0.000000
   135  H   -0.004537   0.000000
   136  H   -0.019055   0.000000
   137  H    0.051670   0.000000
   138  H    0.050085  -0.000000
   139  H    0.047725   0.000000
   140  H   -0.023500  -0.000000
   141  H   -0.015900   0.000000
   142  H   -0.004960  -0.000000
   143  H   -0.005026  -0.000000
   144  H   -0.020104   0.000000
   145  H    0.040469  -0.000000
   146  H    0.055748  -0.000000
   147  H    0.047785  -0.000000
   148  H   -0.023917   0.000000
   149  H   -0.022700  -0.000000
   150  H   -0.001498   0.000000
   151  H   -0.001875  -0.000000
   152  H   -0.013515   0.000000
   153  H   -0.010029   0.000000
   154  H    0.052652  -0.000000
   155  H    0.046833  -0.000000
   156  H    0.048788  -0.000000
 Sum of Mulliken charges =  -0.00000  -0.00000

 Dipole moment (field-independent basis, Debye):
    X=             -6.1594    Y=              5.5295    Z=              3.1540  Tot=              8.8579
 Quadrupole moment (field-independent basis, Debye-Ang):
   XX=           -342.8286   YY=           -472.6752   ZZ=           -548.4357
   XY=            196.9081   XZ=             57.1562   YZ=             -8.4307

 Normal termination of Gaussian 16 at Sat Jul 25 23:33:05 2020.
