 Gaussian 16, Revision A.03,
 Gaussian 16:  EM64L-G16RevA.03 25-Dec-2016

 ---------------------------------------------------------------
 #P uLC-wPBE/cc-pVDZ iop(3/107=0406300000, 3/108=0406300000) opt
 ---------------------------------------------------------------

 --------------
 H5 C8 S1 N2 F1
 --------------
 Symbolic Z-matrix:
 Charge =  0 Multiplicity = 1

 SCF Done:  E(ULC-wPBE) =  -914.903253070     A.U. after   17 cycles
 SCF Done:  E(ULC-wPBE) =  -914.933221620     A.U. after   15 cycles
 SCF Done:  E(ULC-wPBE) =  -914.937309874     A.U. after   15 cycles
 SCF Done:  E(ULC-wPBE) =  -914.937566650     A.U. after   13 cycles
 SCF Done:  E(ULC-wPBE) =  -914.937611891     A.U. after   12 cycles
 SCF Done:  E(ULC-wPBE) =  -914.937623287     A.U. after   12 cycles
 SCF Done:  E(ULC-wPBE) =  -914.937627213     A.U. after   11 cycles
 SCF Done:  E(ULC-wPBE) =  -914.937629010     A.U. after    9 cycles
 SCF Done:  E(ULC-wPBE) =  -914.937629126     A.U. after    8 cycles
 Optimization completed.
    -- Stationary point found.

                         Standard orientation:
 ---------------------------------------------------------------------
 Center     Atomic      Atomic             Coordinates (Angstroms)
 Number     Number       Type             X           Y           Z
 ---------------------------------------------------------------------
      1          6           0       -3.266064   -0.638040   -0.000143
      2          6           0       -2.286509   -1.623501   -0.001288
      3          7           0       -0.990344   -1.351591   -0.001408
      4          6           0       -0.585591   -0.081461   -0.000707
      5          6           0       -1.508875    0.963106    0.000397
      6          9           0       -1.115081    2.233076    0.001800
      7          6           0       -2.863508    0.686269    0.000821
      8          6           0        0.874170    0.119970   -0.000769
      9          7           0        1.490449    1.261290   -0.002586
     10          6           0        2.844405    1.070057   -0.001474
     11          6           0        3.254674   -0.225788    0.000488
     12         16           0        1.902180   -1.271777    0.001813
     13          1           0       -4.323135   -0.903721   -0.000024
     14          1           0       -2.557825   -2.682137   -0.001810
     15          1           0       -3.572418    1.514484    0.001914
     16          1           0        3.504216    1.936746   -0.002662
     17          1           0        4.273062   -0.606181    0.001389
 ---------------------------------------------------------------------

 The electronic state is 1-A.
 Alpha  occ. eigenvalues --  -88.32907 -24.51331 -14.23885 -14.22048 -10.22765
 Alpha  occ. eigenvalues --  -10.19342 -10.18809 -10.17255 -10.15996 -10.15536
 Alpha  occ. eigenvalues --  -10.15402 -10.15239  -7.93707  -5.95166  -5.94646
 Alpha  occ. eigenvalues --   -5.94323  -1.36428  -1.13175  -1.11127  -0.97678
 Alpha  occ. eigenvalues --   -0.95300  -0.94622  -0.88365  -0.80414  -0.79114
 Alpha  occ. eigenvalues --   -0.72490  -0.71669  -0.67331  -0.65769  -0.64382
 Alpha  occ. eigenvalues --   -0.61975  -0.61743  -0.56868  -0.56236  -0.55184
 Alpha  occ. eigenvalues --   -0.54129  -0.53261  -0.52634  -0.50226  -0.48019
 Alpha  occ. eigenvalues --   -0.42443  -0.39859  -0.39849  -0.38361  -0.38319
 Alpha  occ. eigenvalues --   -0.33352
 Alpha virt. eigenvalues --    0.01210   0.05723   0.10093   0.14089   0.15185
 Alpha virt. eigenvalues --    0.15687   0.17823   0.19724   0.21346   0.22163
 Alpha virt. eigenvalues --    0.23374   0.26013   0.26792   0.31551   0.33826

  Beta  occ. eigenvalues --  -88.32907 -24.51331 -14.23885 -14.22048 -10.22765
  Beta  occ. eigenvalues --  -10.19342 -10.18809 -10.17255 -10.15996 -10.15536
  Beta  occ. eigenvalues --  -10.15402 -10.15239  -7.93707  -5.95166  -5.94646
  Beta  occ. eigenvalues --   -5.94323  -1.36428  -1.13175  -1.11127  -0.97678
  Beta  occ. eigenvalues --   -0.95300  -0.94622  -0.88365  -0.80414  -0.79114
  Beta  occ. eigenvalues --   -0.72490  -0.71669  -0.67331  -0.65769  -0.64382
  Beta  occ. eigenvalues --   -0.61975  -0.61743  -0.56868  -0.56236  -0.55184
  Beta  occ. eigenvalues --   -0.54129  -0.53261  -0.52634  -0.50226  -0.48019
  Beta  occ. eigenvalues --   -0.42443  -0.39859  -0.39849  -0.38361  -0.38319
  Beta  occ. eigenvalues --   -0.33352
  Beta virt. eigenvalues --    0.01210   0.05723   0.10093   0.14089   0.15185
  Beta virt. eigenvalues --    0.15687   0.17823   0.19724   0.21346   0.22163
  Beta virt. eigenvalues --    0.23374   0.26013   0.26792   0.31551   0.33826

 Mulliken charges and spin densities:
               1          2
     1  C   -0.048397   0.000000
     2  C    0.080906   0.000000
     3  N   -0.209642   0.000000
     4  C    0.051089  -0.000000
     5  C    0.128995   0.000000
     6  F   -0.099319  -0.000000
     7  C    0.042189  -0.000000
     8  C   -0.024184   0.000000
     9  N   -0.181880  -0.000000
    10  C    0.097147   0.000000
    11  C   -0.191264   0.000000
    12  S    0.196567  -0.000000
    13  H    0.024342  -0.000000
    14  H    0.029565   0.000000
    15  H    0.035307  -0.000000
    16  H    0.020906  -0.000000
    17  H    0.047674   0.000000
 Sum of Mulliken charges =  -0.00000   0.00000

 Dipole moment (field-independent basis, Debye):
    X=             -1.4730    Y=             -0.9226    Z=              0.0034  Tot=              1.7380
 Quadrupole moment (field-independent basis, Debye-Ang):
   XX=            -52.6127   YY=            -75.3467   ZZ=            -76.1224
   XY=              0.5082   XZ=              0.0019   YZ=              0.0006

 Normal termination of Gaussian 16 at Fri Jul 24 23:00:45 2020.
