 Gaussian 16, Revision A.03,
 Gaussian 16:  EM64L-G16RevA.03 25-Dec-2016

 ---------------------------------------------------------------
 #P uLC-wPBE/cc-pVDZ iop(3/107=0442400000, 3/108=0442400000) opt
 ---------------------------------------------------------------

 -------------------
 H20 C30 S3 N3 O3 F3
 -------------------
 Symbolic Z-matrix:
 Charge =  0 Multiplicity = 1

 SCF Done:  E(ULC-wPBE) =  -3037.59673081     A.U. after   17 cycles
 SCF Done:  E(ULC-wPBE) =  -3037.66461599     A.U. after   14 cycles
 SCF Done:  E(ULC-wPBE) =  -3037.71354944     A.U. after   15 cycles
 SCF Done:  E(ULC-wPBE) =  -3037.71703974     A.U. after   13 cycles
 SCF Done:  E(ULC-wPBE) =  -3037.71820967     A.U. after   14 cycles
 SCF Done:  E(ULC-wPBE) =  -3037.71876184     A.U. after   15 cycles
 SCF Done:  E(ULC-wPBE) =  -3037.71920718     A.U. after   12 cycles
 SCF Done:  E(ULC-wPBE) =  -3037.71934795     A.U. after   13 cycles
 SCF Done:  E(ULC-wPBE) =  -3037.71945709     A.U. after   11 cycles
 SCF Done:  E(ULC-wPBE) =  -3037.71948631     A.U. after   12 cycles
 SCF Done:  E(ULC-wPBE) =  -3037.71950052     A.U. after   11 cycles
 SCF Done:  E(ULC-wPBE) =  -3037.71950760     A.U. after   11 cycles
 SCF Done:  E(ULC-wPBE) =  -3037.71950971     A.U. after   10 cycles
 SCF Done:  E(ULC-wPBE) =  -3037.71951099     A.U. after    9 cycles
 SCF Done:  E(ULC-wPBE) =  -3037.71951160     A.U. after    9 cycles
 SCF Done:  E(ULC-wPBE) =  -3037.71951174     A.U. after    8 cycles
 SCF Done:  E(ULC-wPBE) =  -3037.71951177     A.U. after    7 cycles
 SCF Done:  E(ULC-wPBE) =  -3037.71951179     A.U. after    7 cycles
 SCF Done:  E(ULC-wPBE) =  -3037.71951179     A.U. after    6 cycles
 Optimization completed.
    -- Stationary point found.

                         Standard orientation:
 ---------------------------------------------------------------------
 Center     Atomic      Atomic             Coordinates (Angstroms)
 Number     Number       Type             X           Y           Z
 ---------------------------------------------------------------------
      1          6           0       -9.688170   -3.677520    0.064593
      2          6           0       -8.409355   -3.844253   -0.430005
      3          7           0       -7.533845   -2.848494   -0.501225
      4          6           0       -7.886560   -1.641668   -0.080348
      5          6           0       -9.146873   -1.390157    0.492573
      6          8           0       -9.360447   -0.156083    0.981026
      7          6           0      -10.631422    0.146348    1.496876
      8          6           0      -10.062740   -2.429644    0.541735
      9          6           0       -6.855892   -0.597888   -0.190650
     10          6           0       -6.930111    0.731701   -0.480042
     11          9           0       -8.057933    1.383560   -0.756673
     12          6           0       -5.683553    1.399525   -0.530536
     13          6           0       -4.645999    0.548987   -0.288282
     14         16           0       -5.203536   -1.051429   -0.006650
     15          6           0       -3.214014    0.873651   -0.262022
     16          6           0       -2.248633   -0.041312   -0.660522
     17          7           0       -0.952200    0.232116   -0.671676
     18          6           0       -0.529699    1.430131   -0.293132
     19          6           0       -1.422943    2.410752    0.178433
     20          8           0       -0.886641    3.552024    0.640535
     21          6           0       -1.751467    4.572308    1.071080
     22          6           0       -2.776183    2.122974    0.175662
     23          6           0        0.923339    1.643226   -0.330734
     24          6           0        1.679694    2.738572   -0.624897
     25          9           0        1.186501    3.922003   -0.982876
     26          6           0        3.078246    2.524791   -0.587956
     27          6           0        3.381543    1.234225   -0.271731
     28         16           0        1.960052    0.299638   -0.027556
     29          6           0        4.714778    0.632478   -0.141653
     30          6           0        5.790507    1.378102    0.321673
     31          7           0        7.009905    0.879949    0.463534
     32          6           0        7.239666   -0.390715    0.163392
     33          6           0        6.227219   -1.219382   -0.355604
     34          8           0        6.582788   -2.460921   -0.723339
     35          6           0        5.581733   -3.335076   -1.181270
     36          6           0        4.953330   -0.695903   -0.490645
     37          6           0        8.620468   -0.861088    0.345005
     38          6           0        9.122128   -2.055055    0.770114
     39          9           0        8.378927   -3.096771    1.139839
     40          6           0       10.536955   -2.110831    0.849046
     41          6           0       11.091107   -0.926605    0.485344
     42         16           0        9.918192    0.239842    0.068357
     43          1           0      -10.385714   -4.512981    0.093276
     44          1           0       -8.066615   -4.815598   -0.790187
     45          1           0      -11.415953    0.017584    0.736794
     46          1           0      -10.595928    1.196834    1.797949
     47          1           0      -10.869819   -0.471331    2.375537
     48          1           0      -11.055191   -2.281751    0.961447
     49          1           0       -5.584317    2.452327   -0.781070
     50          1           0       -2.535530   -1.037492   -1.003069
     51          1           0       -2.350061    4.256389    1.938223
     52          1           0       -1.112014    5.409364    1.363647
     53          1           0       -2.422482    4.898573    0.263012
     54          1           0       -3.500958    2.844085    0.545987
     55          1           0        3.804049    3.296375   -0.829530
     56          1           0        5.657166    2.421861    0.610455
     57          1           0        4.800893   -3.485577   -0.421677
     58          1           0        5.120826   -2.971063   -2.111330
     59          1           0        6.078203   -4.289093   -1.377499
     60          1           0        4.143820   -1.298085   -0.898185
     61          1           0       11.084138   -2.991638    1.173095
     62          1           0       12.147484   -0.675950    0.450926
 ---------------------------------------------------------------------

 The electronic state is 1-A.
 Alpha  occ. eigenvalues --  -88.34756 -88.34651 -88.34018 -24.52361 -24.52223
 Alpha  occ. eigenvalues --  -24.51660 -19.04716 -19.04690 -19.04239 -14.24612
 Alpha  occ. eigenvalues --  -14.24407 -14.24200 -10.23193 -10.23106 -10.22442
 Alpha  occ. eigenvalues --  -10.22422 -10.22284 -10.21980 -10.20819 -10.20736
 Alpha  occ. eigenvalues --  -10.20201 -10.20005 -10.19928 -10.19557 -10.19246
 Alpha  occ. eigenvalues --  -10.19068 -10.17931 -10.17863 -10.17835 -10.17780
 Alpha  occ. eigenvalues --  -10.17669 -10.17601 -10.17549 -10.17481 -10.17124
 Alpha  occ. eigenvalues --  -10.16932 -10.16875 -10.16528 -10.16193 -10.15630
 Alpha  occ. eigenvalues --  -10.15364 -10.14845  -7.95577  -7.95477  -7.94858
 Alpha  occ. eigenvalues --   -5.96935  -5.96835  -5.96389  -5.96292  -5.96207
 Alpha  occ. eigenvalues --   -5.95943  -5.95840  -5.95660  -5.95240  -1.37202
 Alpha  occ. eigenvalues --   -1.37084  -1.36486  -1.24854  -1.24801  -1.24373
 Alpha  occ. eigenvalues --   -1.12962  -1.12618  -1.12508  -1.07771  -1.07291
 Alpha  occ. eigenvalues --   -1.06294  -0.99865  -0.98885  -0.97852  -0.96502
 Alpha  occ. eigenvalues --   -0.96040  -0.95478  -0.91755  -0.90848  -0.90608
 Alpha  occ. eigenvalues --   -0.89601  -0.89192  -0.88234  -0.87481  -0.87331
 Alpha  occ. eigenvalues --   -0.86050  -0.81994  -0.80348  -0.78802  -0.77814
 Alpha  occ. eigenvalues --   -0.77225  -0.77163  -0.73090  -0.72662  -0.72306
 Alpha  occ. eigenvalues --   -0.72098  -0.71710  -0.71600  -0.70552  -0.69720
 Alpha  occ. eigenvalues --   -0.68701  -0.67522  -0.66367  -0.66113  -0.65868
 Alpha  occ. eigenvalues --   -0.65435  -0.65107  -0.63112  -0.63065  -0.62639
 Alpha  occ. eigenvalues --   -0.62411  -0.62022  -0.61417  -0.61176  -0.60926
 Alpha  occ. eigenvalues --   -0.60469  -0.59547  -0.59012  -0.58747  -0.58035
 Alpha  occ. eigenvalues --   -0.57772  -0.57565  -0.57376  -0.57212  -0.56876
 Alpha  occ. eigenvalues --   -0.56757  -0.56198  -0.55886  -0.55625  -0.54029
 Alpha  occ. eigenvalues --   -0.53539  -0.53362  -0.52737  -0.52291  -0.51618
 Alpha  occ. eigenvalues --   -0.51527  -0.51350  -0.50558  -0.50020  -0.49655
 Alpha  occ. eigenvalues --   -0.49012  -0.47889  -0.47767  -0.47465  -0.47258
 Alpha  occ. eigenvalues --   -0.47109  -0.46991  -0.46674  -0.46501  -0.46338
 Alpha  occ. eigenvalues --   -0.43443  -0.41957  -0.40629  -0.39131  -0.38936
 Alpha  occ. eigenvalues --   -0.38678  -0.36793  -0.36642  -0.36554  -0.35680
 Alpha  occ. eigenvalues --   -0.35437  -0.34902  -0.33393  -0.31405  -0.29532
 Alpha virt. eigenvalues --    0.00146   0.02504   0.04873   0.06565   0.07080
 Alpha virt. eigenvalues --    0.07633   0.08311   0.10665   0.12212   0.13777
 Alpha virt. eigenvalues --    0.14117   0.14785   0.14874   0.14968   0.16346

  Beta  occ. eigenvalues --  -88.34756 -88.34651 -88.34018 -24.52361 -24.52223
  Beta  occ. eigenvalues --  -24.51660 -19.04716 -19.04690 -19.04239 -14.24612
  Beta  occ. eigenvalues --  -14.24407 -14.24200 -10.23193 -10.23106 -10.22442
  Beta  occ. eigenvalues --  -10.22422 -10.22284 -10.21980 -10.20819 -10.20736
  Beta  occ. eigenvalues --  -10.20201 -10.20005 -10.19928 -10.19557 -10.19246
  Beta  occ. eigenvalues --  -10.19068 -10.17931 -10.17863 -10.17835 -10.17780
  Beta  occ. eigenvalues --  -10.17669 -10.17601 -10.17549 -10.17481 -10.17124
  Beta  occ. eigenvalues --  -10.16932 -10.16875 -10.16528 -10.16193 -10.15630
  Beta  occ. eigenvalues --  -10.15364 -10.14845  -7.95577  -7.95477  -7.94858
  Beta  occ. eigenvalues --   -5.96935  -5.96835  -5.96389  -5.96292  -5.96207
  Beta  occ. eigenvalues --   -5.95943  -5.95840  -5.95660  -5.95240  -1.37202
  Beta  occ. eigenvalues --   -1.37084  -1.36486  -1.24854  -1.24801  -1.24373
  Beta  occ. eigenvalues --   -1.12962  -1.12618  -1.12508  -1.07771  -1.07291
  Beta  occ. eigenvalues --   -1.06294  -0.99865  -0.98885  -0.97852  -0.96502
  Beta  occ. eigenvalues --   -0.96040  -0.95478  -0.91755  -0.90848  -0.90608
  Beta  occ. eigenvalues --   -0.89601  -0.89192  -0.88234  -0.87481  -0.87331
  Beta  occ. eigenvalues --   -0.86050  -0.81994  -0.80348  -0.78802  -0.77814
  Beta  occ. eigenvalues --   -0.77225  -0.77163  -0.73090  -0.72662  -0.72306
  Beta  occ. eigenvalues --   -0.72098  -0.71710  -0.71600  -0.70552  -0.69720
  Beta  occ. eigenvalues --   -0.68701  -0.67522  -0.66367  -0.66113  -0.65868
  Beta  occ. eigenvalues --   -0.65435  -0.65107  -0.63112  -0.63065  -0.62639
  Beta  occ. eigenvalues --   -0.62411  -0.62022  -0.61417  -0.61176  -0.60926
  Beta  occ. eigenvalues --   -0.60469  -0.59547  -0.59012  -0.58747  -0.58035
  Beta  occ. eigenvalues --   -0.57772  -0.57565  -0.57376  -0.57212  -0.56876
  Beta  occ. eigenvalues --   -0.56757  -0.56198  -0.55886  -0.55625  -0.54029
  Beta  occ. eigenvalues --   -0.53539  -0.53362  -0.52737  -0.52291  -0.51618
  Beta  occ. eigenvalues --   -0.51527  -0.51350  -0.50558  -0.50020  -0.49655
  Beta  occ. eigenvalues --   -0.49012  -0.47889  -0.47767  -0.47465  -0.47258
  Beta  occ. eigenvalues --   -0.47109  -0.46991  -0.46674  -0.46501  -0.46338
  Beta  occ. eigenvalues --   -0.43443  -0.41957  -0.40629  -0.39131  -0.38936
  Beta  occ. eigenvalues --   -0.38678  -0.36793  -0.36642  -0.36554  -0.35680
  Beta  occ. eigenvalues --   -0.35437  -0.34902  -0.33393  -0.31405  -0.29532
  Beta virt. eigenvalues --    0.00146   0.02504   0.04873   0.06565   0.07080
  Beta virt. eigenvalues --    0.07633   0.08311   0.10665   0.12212   0.13777
  Beta virt. eigenvalues --    0.14117   0.14785   0.14874   0.14968   0.16346

 Mulliken charges and spin densities:
               1          2
     1  C   -0.057119  -0.000000
     2  C    0.072233  -0.000000
     3  N   -0.199436  -0.000000
     4  C    0.071798  -0.000000
     5  C    0.117697   0.000000
     6  O   -0.245991   0.000000
     7  C    0.033873  -0.000000
     8  C   -0.008789  -0.000000
     9  C   -0.178569   0.000000
    10  C    0.136912   0.000000
    11  F   -0.120423  -0.000000
    12  C    0.003953  -0.000000
    13  C   -0.170560   0.000000
    14  S    0.223438  -0.000000
    15  C   -0.037234  -0.000000
    16  C    0.080082  -0.000000
    17  N   -0.197543  -0.000000
    18  C    0.081674   0.000000
    19  C    0.128217  -0.000000
    20  O   -0.245742   0.000000
    21  C    0.035176  -0.000000
    22  C    0.007724   0.000000
    23  C   -0.182242  -0.000000
    24  C    0.134294  -0.000000
    25  F   -0.118922   0.000000
    26  C    0.009226   0.000000
    27  C   -0.167908  -0.000000
    28  S    0.213301   0.000000
    29  C   -0.037322   0.000000
    30  C    0.078174  -0.000000
    31  N   -0.194304  -0.000000
    32  C    0.084469  -0.000000
    33  C    0.126782   0.000000
    34  O   -0.245745  -0.000000
    35  C    0.033463  -0.000000
    36  C    0.006837  -0.000000
    37  C   -0.186990   0.000000
    38  C    0.116881   0.000000
    39  F   -0.122738  -0.000000
    40  C    0.023835  -0.000000
    41  C   -0.146184  -0.000000
    42  S    0.206434   0.000000
    43  H    0.020027   0.000000
    44  H    0.025241   0.000000
    45  H    0.055347   0.000000
    46  H    0.071508  -0.000000
    47  H    0.053608   0.000000
    48  H    0.024509  -0.000000
    49  H    0.019771   0.000000
    50  H    0.030452   0.000000
    51  H    0.056068   0.000000
    52  H    0.073095   0.000000
    53  H    0.054441   0.000000
    54  H    0.017597  -0.000000
    55  H    0.024903   0.000000
    56  H    0.020416   0.000000
    57  H    0.058086  -0.000000
    58  H    0.056768   0.000000
    59  H    0.071519   0.000000
    60  H    0.027941   0.000000
    61  H    0.025409  -0.000000
    62  H    0.050584   0.000000
 Sum of Mulliken charges =  -0.00000  -0.00000

 Dipole moment (field-independent basis, Debye):
    X=             -6.1440    Y=              0.3817    Z=              1.3190  Tot=              6.2956
 Quadrupole moment (field-independent basis, Debye-Ang):
   XX=           -185.9743   YY=           -228.1127   ZZ=           -259.4967
   XY=             -9.1794   XZ=            -24.2320   YZ=              7.0234

 Normal termination of Gaussian 16 at Sat Jul 25 05:55:08 2020.
