 Gaussian 16, Revision A.03,
 Gaussian 16:  EM64L-G16RevA.03 25-Dec-2016

 ---------------------------------------------------------------
 #P uLC-wPBE/cc-pVDZ iop(3/107=0286800000, 3/108=0286800000) opt
 ---------------------------------------------------------------

 --------------
 H6 C9 S1 N1 F1
 --------------
 Symbolic Z-matrix:
 Charge =  0 Multiplicity = 1

 SCF Done:  E(ULC-wPBE) =  -898.826092760     A.U. after   16 cycles
 SCF Done:  E(ULC-wPBE) =  -898.851050932     A.U. after   15 cycles
 SCF Done:  E(ULC-wPBE) =  -898.853614096     A.U. after   14 cycles
 SCF Done:  E(ULC-wPBE) =  -898.853727942     A.U. after   13 cycles
 SCF Done:  E(ULC-wPBE) =  -898.853798939     A.U. after   12 cycles
 SCF Done:  E(ULC-wPBE) =  -898.853807065     A.U. after   12 cycles
 SCF Done:  E(ULC-wPBE) =  -898.853811557     A.U. after   12 cycles
 SCF Done:  E(ULC-wPBE) =  -898.853812045     A.U. after    9 cycles
 SCF Done:  E(ULC-wPBE) =  -898.853812094     A.U. after    8 cycles
 Optimization completed.
    -- Stationary point found.

                         Standard orientation:
 ---------------------------------------------------------------------
 Center     Atomic      Atomic             Coordinates (Angstroms)
 Number     Number       Type             X           Y           Z
 ---------------------------------------------------------------------
      1          6           0       -3.398989   -0.364962    0.000005
      2          6           0       -2.598207   -1.507239    0.000129
      3          7           0       -1.265814   -1.478487    0.000122
      4          6           0       -0.636322   -0.292035   -0.000001
      5          6           0       -1.382086    0.894322   -0.000107
      6          9           0       -0.746334    2.085207   -0.000144
      7          6           0       -2.766834    0.874823   -0.000056
      8          6           0        0.837573   -0.336044    0.000032
      9          6           0        1.584313   -1.492519   -0.000098
     10          6           0        2.984864   -1.251188   -0.000208
     11          6           0        3.281191    0.086884    0.000051
     12         16           0        1.868053    1.062096    0.000169
     13          1           0       -4.490409   -0.443860   -0.000090
     14          1           0       -3.054585   -2.506003    0.000161
     15          1           0       -3.317207    1.820860   -0.000185
     16          1           0        1.108465   -2.475340   -0.000240
     17          1           0        3.743691   -2.037942   -0.000415
     18          1           0        4.265892    0.559032    0.000031
 ---------------------------------------------------------------------

 The electronic state is 1-A.
 Alpha  occ. eigenvalues --  -88.25825 -24.45902 -14.16614 -10.15478 -10.11981
 Alpha  occ. eigenvalues --  -10.10131 -10.09159 -10.09145 -10.08545 -10.08268
 Alpha  occ. eigenvalues --  -10.06226 -10.06009  -7.86329  -5.88188  -5.87677
 Alpha  occ. eigenvalues --   -5.87328  -1.29984  -1.04556  -0.97572  -0.90952
 Alpha  occ. eigenvalues --   -0.87941  -0.82903  -0.81418  -0.74512  -0.73414
 Alpha  occ. eigenvalues --   -0.66764  -0.64702  -0.63138  -0.61063  -0.60384
 Alpha  occ. eigenvalues --   -0.57477  -0.57181  -0.52525  -0.50817  -0.50740
 Alpha  occ. eigenvalues --   -0.50492  -0.48157  -0.48031  -0.46883  -0.45770
 Alpha  occ. eigenvalues --   -0.42503  -0.39654  -0.36716  -0.35368  -0.33797
 Alpha  occ. eigenvalues --   -0.30258
 Alpha virt. eigenvalues --    0.01139   0.04738   0.09210   0.12760   0.14016
 Alpha virt. eigenvalues --    0.14649   0.16296   0.17511   0.19275   0.20965
 Alpha virt. eigenvalues --    0.21395   0.22630   0.23087   0.23974   0.31811

  Beta  occ. eigenvalues --  -88.25825 -24.45902 -14.16614 -10.15478 -10.11981
  Beta  occ. eigenvalues --  -10.10131 -10.09159 -10.09145 -10.08545 -10.08268
  Beta  occ. eigenvalues --  -10.06226 -10.06009  -7.86329  -5.88188  -5.87677
  Beta  occ. eigenvalues --   -5.87328  -1.29984  -1.04556  -0.97572  -0.90952
  Beta  occ. eigenvalues --   -0.87941  -0.82903  -0.81418  -0.74512  -0.73414
  Beta  occ. eigenvalues --   -0.66764  -0.64702  -0.63138  -0.61063  -0.60384
  Beta  occ. eigenvalues --   -0.57477  -0.57181  -0.52525  -0.50817  -0.50740
  Beta  occ. eigenvalues --   -0.50492  -0.48157  -0.48031  -0.46883  -0.45770
  Beta  occ. eigenvalues --   -0.42503  -0.39654  -0.36716  -0.35368  -0.33797
  Beta  occ. eigenvalues --   -0.30258
  Beta virt. eigenvalues --    0.01139   0.04738   0.09210   0.12760   0.14016
  Beta virt. eigenvalues --    0.14649   0.16296   0.17511   0.19275   0.20965
  Beta virt. eigenvalues --    0.21395   0.22630   0.23087   0.23974   0.31811

 Mulliken charges and spin densities:
               1          2
     1  C   -0.033307   0.000000
     2  C    0.082890  -0.000000
     3  N   -0.193633  -0.000000
     4  C    0.080044   0.000000
     5  C    0.097694  -0.000000
     6  F   -0.123817  -0.000000
     7  C    0.063117   0.000000
     8  C   -0.170665  -0.000000
     9  C    0.047929   0.000000
    10  C    0.060617  -0.000000
    11  C   -0.133437   0.000000
    12  S    0.161340  -0.000000
    13  H    0.005549  -0.000000
    14  H    0.013094   0.000000
    15  H    0.017704   0.000000
    16  H   -0.000399  -0.000000
    17  H   -0.004440   0.000000
    18  H    0.029720  -0.000000
 Sum of Mulliken charges =  -0.00000   0.00000

 Dipole moment (field-independent basis, Debye):
    X=             -1.3472    Y=              0.1018    Z=             -0.0005  Tot=              1.3511
 Quadrupole moment (field-independent basis, Debye-Ang):
   XX=            -57.0747   YY=            -72.9302   ZZ=            -78.0488
   XY=             -1.0800   XZ=             -0.0001   YZ=              0.0009

 Normal termination of Gaussian 16 at Sat Jul 25 03:36:33 2020.
