 Gaussian 16, Revision A.03,
 Gaussian 16:  EM64L-G16RevA.03 25-Dec-2016

 ---------------------------------------------------------------
 #P uLC-wPBE/cc-pVDZ iop(3/107=0450200000, 3/108=0450200000) opt
 ---------------------------------------------------------------

 ----------------
 H20 C27 S3 N6 O3
 ----------------
 Symbolic Z-matrix:
 Charge =  0 Multiplicity = 1

 SCF Done:  E(ULC-wPBE) =  -2788.12992368     A.U. after   17 cycles
 SCF Done:  E(ULC-wPBE) =  -2788.20429674     A.U. after   14 cycles
 SCF Done:  E(ULC-wPBE) =  -2788.25404367     A.U. after   14 cycles
 SCF Done:  E(ULC-wPBE) =  -2788.26638695     A.U. after   14 cycles
 SCF Done:  E(ULC-wPBE) =  -2788.26891975     A.U. after   14 cycles
 SCF Done:  E(ULC-wPBE) =  -2788.27043312     A.U. after   14 cycles
 SCF Done:  E(ULC-wPBE) =  -2788.27187150     A.U. after   17 cycles
 SCF Done:  E(ULC-wPBE) =  -2788.27297478     A.U. after   15 cycles
 SCF Done:  E(ULC-wPBE) =  -2788.27374905     A.U. after   14 cycles
 SCF Done:  E(ULC-wPBE) =  -2788.27458435     A.U. after   14 cycles
 SCF Done:  E(ULC-wPBE) =  -2788.27558900     A.U. after   13 cycles
 SCF Done:  E(ULC-wPBE) =  -2788.27559952     A.U. after   11 cycles
 SCF Done:  E(ULC-wPBE) =  -2788.27560204     A.U. after   11 cycles
 SCF Done:  E(ULC-wPBE) =  -2788.27560334     A.U. after   11 cycles
 SCF Done:  E(ULC-wPBE) =  -2788.27560377     A.U. after    8 cycles
 SCF Done:  E(ULC-wPBE) =  -2788.27560384     A.U. after    8 cycles
 SCF Done:  E(ULC-wPBE) =  -2788.27560388     A.U. after    8 cycles
 SCF Done:  E(ULC-wPBE) =  -2788.27560385     A.U. after    7 cycles
 SCF Done:  E(ULC-wPBE) =  -2788.27560383     A.U. after    7 cycles
 SCF Done:  E(ULC-wPBE) =  -2788.27560387     A.U. after    6 cycles
 Optimization completed.
    -- Stationary point found.

                         Standard orientation:
 ---------------------------------------------------------------------
 Center     Atomic      Atomic             Coordinates (Angstroms)
 Number     Number       Type             X           Y           Z
 ---------------------------------------------------------------------
      1          6           0       10.864931    1.374453    1.068659
      2          6           0        9.665918    1.963637    1.425377
      3          7           0        8.498699    1.466594    1.048046
      4          6           0        8.453757    0.369625    0.304587
      5          6           0        9.619535   -0.301391   -0.107840
      6          8           0        9.484971   -1.402864   -0.856428
      7          6           0       10.646342   -2.073000   -1.274441
      8          6           0       10.840932    0.228097    0.292599
      9          6           0        7.087575   -0.067234   -0.039036
     10          7           0        6.738752   -1.093147   -0.748023
     11          6           0        5.382132   -1.167321   -0.844486
     12          6           0        4.675344   -0.194004   -0.204685
     13         16           0        5.773526    0.881377    0.565263
     14          6           0        3.219643   -0.026541   -0.148352
     15          6           0        2.627061    1.230640   -0.066704
     16          7           0        1.321487    1.418476   -0.026237
     17          6           0        0.505261    0.375953   -0.069664
     18          6           0        1.002692   -0.934372   -0.155951
     19          8           0        0.097724   -1.931300   -0.190562
     20          6           0        0.549730   -3.261587   -0.270145
     21          6           0        2.372780   -1.129102   -0.187575
     22          6           0       -0.941656    0.688197   -0.016909
     23          7           0       -1.368359    1.910666    0.077601
     24          6           0       -2.724652    1.955241    0.104828
     25          6           0       -3.372871    0.759207    0.029789
     26         16           0       -2.204370   -0.493706   -0.081466
     27          6           0       -4.816945    0.504544    0.042058
     28          6           0       -5.352121   -0.654096    0.592688
     29          7           0       -6.649898   -0.898616    0.620239
     30          6           0       -7.508144   -0.022046    0.119121
     31          6           0       -7.072766    1.186201   -0.457307
     32          8           0       -7.995571    2.022108   -0.946959
     33          6           0       -7.567802    3.228545   -1.525257
     34          6           0       -5.707607    1.430225   -0.493801
     35          6           0       -8.922188   -0.427353    0.218953
     36          7           0       -9.960758    0.229979   -0.186785
     37          6           0      -11.104261   -0.468433    0.080378
     38          6           0      -10.932402   -1.665226    0.693658
     39         16           0       -9.270570   -1.953194    0.959437
     40          1           0       11.811755    1.803477    1.391481
     41          1           0        9.636999    2.867211    2.035358
     42          1           0       11.280226   -1.431521   -1.903804
     43          1           0       10.305599   -2.926990   -1.865253
     44          1           0       11.233139   -2.439377   -0.419514
     45          1           0       11.773709   -0.248789    0.002447
     46          1           0        4.938403   -1.966328   -1.435367
     47          1           0        3.245389    2.130348   -0.042640
     48          1           0        1.130206   -3.432023   -1.187602
     49          1           0       -0.346694   -3.886400   -0.291466
     50          1           0        1.156597   -3.530732    0.605559
     51          1           0        2.793535   -2.130582   -0.222551
     52          1           0       -3.218366    2.919673    0.207603
     53          1           0       -4.704400   -1.410574    1.039027
     54          1           0       -8.475017    3.747968   -1.843861
     55          1           0       -7.029817    3.856893   -0.800598
     56          1           0       -6.927604    3.053519   -2.402070
     57          1           0       -5.320376    2.333936   -0.956765
     58          1           0      -12.064215   -0.042706   -0.203115
     59          1           0      -11.694221   -2.377003    0.995842
 ---------------------------------------------------------------------

 The electronic state is 1-A.
 Alpha  occ. eigenvalues --  -88.35498 -88.35222 -88.34198 -19.06304 -19.05107
 Alpha  occ. eigenvalues --  -19.04492 -14.25632 -14.25172 -14.24734 -14.24292
 Alpha  occ. eigenvalues --  -14.23737 -14.23223 -10.23364 -10.23332 -10.22821
 Alpha  occ. eigenvalues --  -10.21927 -10.21847 -10.21717 -10.21252 -10.20805
 Alpha  occ. eigenvalues --  -10.20596 -10.20452 -10.20189 -10.19820 -10.18948
 Alpha  occ. eigenvalues --  -10.18663 -10.18629 -10.18568 -10.18345 -10.18341
 Alpha  occ. eigenvalues --  -10.18293 -10.17943 -10.17683 -10.17633 -10.17623
 Alpha  occ. eigenvalues --  -10.17228 -10.17067 -10.16943 -10.16708  -7.96351
 Alpha  occ. eigenvalues --   -7.96098  -7.95094  -5.97642  -5.97383  -5.97092
 Alpha  occ. eigenvalues --   -5.96843  -5.96745  -5.96488  -5.96367  -5.95832
 Alpha  occ. eigenvalues --   -5.95500  -1.26143  -1.25424  -1.24830  -1.15244
 Alpha  occ. eigenvalues --   -1.14944  -1.14251  -1.12953  -1.12461  -1.12143
 Alpha  occ. eigenvalues --   -1.01624  -1.00896  -0.98917  -0.97647  -0.96981
 Alpha  occ. eigenvalues --   -0.96679  -0.95939  -0.95721  -0.95200  -0.91866
 Alpha  occ. eigenvalues --   -0.90437  -0.89472  -0.88202  -0.87877  -0.87180
 Alpha  occ. eigenvalues --   -0.82780  -0.81194  -0.80780  -0.78194  -0.78079
 Alpha  occ. eigenvalues --   -0.77548  -0.73334  -0.73113  -0.73012  -0.72506
 Alpha  occ. eigenvalues --   -0.71991  -0.71213  -0.68942  -0.67936  -0.67341
 Alpha  occ. eigenvalues --   -0.66442  -0.66205  -0.66181  -0.64694  -0.64189
 Alpha  occ. eigenvalues --   -0.63965  -0.63768  -0.63440  -0.62846  -0.62603
 Alpha  occ. eigenvalues --   -0.61033  -0.59604  -0.58975  -0.58562  -0.58114
 Alpha  occ. eigenvalues --   -0.58008  -0.57665  -0.57436  -0.57242  -0.56373
 Alpha  occ. eigenvalues --   -0.55921  -0.55608  -0.55145  -0.54813  -0.54506
 Alpha  occ. eigenvalues --   -0.53894  -0.53615  -0.53020  -0.52532  -0.52239
 Alpha  occ. eigenvalues --   -0.51964  -0.50160  -0.49129  -0.48512  -0.48280
 Alpha  occ. eigenvalues --   -0.48148  -0.47891  -0.47502  -0.47067  -0.46290
 Alpha  occ. eigenvalues --   -0.44829  -0.43335  -0.41480  -0.40402  -0.39899
 Alpha  occ. eigenvalues --   -0.39411  -0.39364  -0.39206  -0.38825  -0.38648
 Alpha  occ. eigenvalues --   -0.38209  -0.37773  -0.37171  -0.36954  -0.36649
 Alpha  occ. eigenvalues --   -0.33972  -0.31906  -0.30073
 Alpha virt. eigenvalues --   -0.00663   0.01464   0.03627   0.06867   0.06992
 Alpha virt. eigenvalues --    0.07368   0.08831   0.11149   0.13036   0.14153
 Alpha virt. eigenvalues --    0.14323   0.14724   0.14805   0.15176   0.15777

  Beta  occ. eigenvalues --  -88.35498 -88.35222 -88.34198 -19.06304 -19.05107
  Beta  occ. eigenvalues --  -19.04492 -14.25632 -14.25172 -14.24734 -14.24292
  Beta  occ. eigenvalues --  -14.23737 -14.23223 -10.23364 -10.23332 -10.22821
  Beta  occ. eigenvalues --  -10.21927 -10.21847 -10.21717 -10.21252 -10.20805
  Beta  occ. eigenvalues --  -10.20596 -10.20452 -10.20189 -10.19820 -10.18948
  Beta  occ. eigenvalues --  -10.18663 -10.18629 -10.18568 -10.18345 -10.18341
  Beta  occ. eigenvalues --  -10.18293 -10.17943 -10.17683 -10.17633 -10.17623
  Beta  occ. eigenvalues --  -10.17228 -10.17067 -10.16943 -10.16708  -7.96351
  Beta  occ. eigenvalues --   -7.96098  -7.95094  -5.97642  -5.97383  -5.97092
  Beta  occ. eigenvalues --   -5.96843  -5.96745  -5.96488  -5.96367  -5.95832
  Beta  occ. eigenvalues --   -5.95500  -1.26143  -1.25424  -1.24830  -1.15244
  Beta  occ. eigenvalues --   -1.14944  -1.14251  -1.12953  -1.12461  -1.12143
  Beta  occ. eigenvalues --   -1.01624  -1.00896  -0.98917  -0.97647  -0.96981
  Beta  occ. eigenvalues --   -0.96679  -0.95939  -0.95721  -0.95200  -0.91866
  Beta  occ. eigenvalues --   -0.90437  -0.89472  -0.88202  -0.87877  -0.87180
  Beta  occ. eigenvalues --   -0.82780  -0.81194  -0.80780  -0.78194  -0.78079
  Beta  occ. eigenvalues --   -0.77548  -0.73334  -0.73113  -0.73012  -0.72506
  Beta  occ. eigenvalues --   -0.71991  -0.71213  -0.68942  -0.67936  -0.67341
  Beta  occ. eigenvalues --   -0.66442  -0.66205  -0.66181  -0.64694  -0.64189
  Beta  occ. eigenvalues --   -0.63965  -0.63768  -0.63440  -0.62846  -0.62603
  Beta  occ. eigenvalues --   -0.61033  -0.59604  -0.58975  -0.58562  -0.58114
  Beta  occ. eigenvalues --   -0.58008  -0.57665  -0.57436  -0.57242  -0.56373
  Beta  occ. eigenvalues --   -0.55921  -0.55608  -0.55145  -0.54813  -0.54506
  Beta  occ. eigenvalues --   -0.53894  -0.53615  -0.53020  -0.52532  -0.52239
  Beta  occ. eigenvalues --   -0.51964  -0.50160  -0.49129  -0.48512  -0.48280
  Beta  occ. eigenvalues --   -0.48148  -0.47891  -0.47502  -0.47067  -0.46290
  Beta  occ. eigenvalues --   -0.44829  -0.43335  -0.41480  -0.40402  -0.39899
  Beta  occ. eigenvalues --   -0.39411  -0.39364  -0.39206  -0.38825  -0.38648
  Beta  occ. eigenvalues --   -0.38209  -0.37773  -0.37171  -0.36954  -0.36649
  Beta  occ. eigenvalues --   -0.33972  -0.31906  -0.30073
  Beta virt. eigenvalues --   -0.00663   0.01464   0.03627   0.06867   0.06992
  Beta virt. eigenvalues --    0.07368   0.08831   0.11149   0.13036   0.14153
  Beta virt. eigenvalues --    0.14323   0.14724   0.14805   0.15176   0.15777

 Mulliken charges and spin densities:
               1          2
     1  C   -0.056153   0.000000
     2  C    0.076150  -0.000000
     3  N   -0.217018   0.000000
     4  C    0.071490   0.000000
     5  C    0.131449  -0.000000
     6  O   -0.221424  -0.000000
     7  C    0.029831   0.000000
     8  C   -0.013049  -0.000000
     9  C   -0.009611  -0.000000
    10  N   -0.175168   0.000000
    11  C    0.098633   0.000000
    12  C   -0.234846  -0.000000
    13  S    0.207200  -0.000000
    14  C   -0.038919   0.000000
    15  C    0.076523  -0.000000
    16  N   -0.157025   0.000000
    17  C    0.035150   0.000000
    18  C    0.143495   0.000000
    19  O   -0.276700   0.000000
    20  C    0.038124   0.000000
    21  C    0.008223  -0.000000
    22  C   -0.004240  -0.000000
    23  N   -0.156975  -0.000000
    24  C    0.110391   0.000000
    25  C   -0.233029  -0.000000
    26  S    0.181569   0.000000
    27  C   -0.042274   0.000000
    28  C    0.082406   0.000000
    29  N   -0.212081  -0.000000
    30  C    0.084296   0.000000
    31  C    0.141026   0.000000
    32  O   -0.220985  -0.000000
    33  C    0.031301  -0.000000
    34  C    0.000276  -0.000000
    35  C   -0.029693  -0.000000
    36  N   -0.182718   0.000000
    37  C    0.091694  -0.000000
    38  C   -0.200368   0.000000
    39  S    0.188502  -0.000000
    40  H    0.023624   0.000000
    41  H    0.029090  -0.000000
    42  H    0.054476  -0.000000
    43  H    0.075259  -0.000000
    44  H    0.053999  -0.000000
    45  H    0.027379  -0.000000
    46  H    0.019487   0.000000
    47  H    0.030658  -0.000000
    48  H    0.059330  -0.000000
    49  H    0.075975  -0.000000
    50  H    0.062311   0.000000
    51  H    0.019402  -0.000000
    52  H    0.023579  -0.000000
    53  H    0.026130   0.000000
    54  H    0.074988   0.000000
    55  H    0.053720   0.000000
    56  H    0.056011   0.000000
    57  H    0.020067   0.000000
    58  H    0.020308  -0.000000
    59  H    0.048755   0.000000
 Sum of Mulliken charges =  -0.00000  -0.00000

 Dipole moment (field-independent basis, Debye):
    X=              6.4443    Y=             -2.9450    Z=             -1.4879  Tot=              7.2399
 Quadrupole moment (field-independent basis, Debye-Ang):
   XX=           -163.9323   YY=           -219.7255   ZZ=           -242.2285
   XY=            -18.9997   XZ=              2.4595   YZ=             -0.9947

 Normal termination of Gaussian 16 at Fri Jul 24 23:24:40 2020.
