 Gaussian 16, Revision A.03,
 Gaussian 16:  EM64L-G16RevA.03 25-Dec-2016

 ---------------------------------------------------------------
 #P uLC-wPBE/cc-pVDZ iop(3/107=0172800000, 3/108=0172800000) opt
 ---------------------------------------------------------------

 -----------------
 H44 C63 S7 N14 O7
 -----------------
 Symbolic Z-matrix:
 Charge =  0 Multiplicity = 1

 SCF Done:  E(ULC-wPBE) =  -6503.23426960     A.U. after   16 cycles
 SCF Done:  E(ULC-wPBE) =  -6503.33314680     A.U. after   13 cycles
 SCF Done:  E(ULC-wPBE) =  -6503.43290019     A.U. after   14 cycles
 SCF Done:  E(ULC-wPBE) =  -6503.46333722     A.U. after   14 cycles
 SCF Done:  E(ULC-wPBE) =  -6503.47564564     A.U. after   14 cycles
 SCF Done:  E(ULC-wPBE) =  -6503.48687241     A.U. after   16 cycles
 SCF Done:  E(ULC-wPBE) =  -6503.49643978     A.U. after   17 cycles
 SCF Done:  E(ULC-wPBE) =  -6503.50086388     A.U. after   14 cycles
 SCF Done:  E(ULC-wPBE) =  -6503.50355455     A.U. after   14 cycles
 SCF Done:  E(ULC-wPBE) =  -6503.50455722     A.U. after   14 cycles
 SCF Done:  E(ULC-wPBE) =  -6503.50578599     A.U. after   10 cycles
 SCF Done:  E(ULC-wPBE) =  -6503.50578950     A.U. after    9 cycles
 SCF Done:  E(ULC-wPBE) =  -6503.50579125     A.U. after    9 cycles
 SCF Done:  E(ULC-wPBE) =  -6503.50579154     A.U. after    9 cycles
 SCF Done:  E(ULC-wPBE) =  -6503.50579186     A.U. after    9 cycles
 SCF Done:  E(ULC-wPBE) =  -6503.50579193     A.U. after    7 cycles
 SCF Done:  E(ULC-wPBE) =  -6503.50579194     A.U. after    6 cycles
 SCF Done:  E(ULC-wPBE) =  -6503.50579192     A.U. after    7 cycles
 SCF Done:  E(ULC-wPBE) =  -6503.50579199     A.U. after    6 cycles
 SCF Done:  E(ULC-wPBE) =  -6503.50579202     A.U. after    5 cycles
 Optimization completed on the basis of negligible forces.
    -- Stationary point found.

                         Standard orientation:
 ---------------------------------------------------------------------
 Center     Atomic      Atomic             Coordinates (Angstroms)
 Number     Number       Type             X           Y           Z
 ---------------------------------------------------------------------
      1          6           0       26.635172    3.036389    0.585004
      2          6           0       25.683925    4.049106    0.423503
      3          7           0       24.378737    3.812659    0.248542
      4          6           0       23.946882    2.540003    0.224710
      5          6           0       24.840653    1.444591    0.380196
      6          8           0       24.297938    0.195298    0.340295
      7          6           0       25.163857   -0.924240    0.504900
      8          6           0       26.205584    1.706865    0.563061
      9          6           0       22.485711    2.369244    0.028603
     10          7           0       21.671095    3.396948   -0.098638
     11          6           0       20.381747    2.987348   -0.265973
     12          6           0       20.153140    1.621435   -0.274636
     13         16           0       21.674200    0.803280   -0.051574
     14          6           0       18.878907    0.909625   -0.436450
     15          6           0       17.668774    1.495613   -0.013369
     16          7           0       16.481387    0.906288   -0.159008
     17          6           0       16.401411   -0.314516   -0.717823
     18          6           0       17.563280   -1.007204   -1.162255
     19          8           0       17.395994   -2.234518   -1.706329
     20          6           0       18.555834   -2.923978   -2.160004
     21          6           0       18.804030   -0.369216   -1.017503
     22          6           0       15.033143   -0.848863   -0.818432
     23          7           0       14.648373   -2.003004   -1.318141
     24          6           0       13.289822   -2.131909   -1.230111
     25          6           0       12.595570   -1.078150   -0.658314
     26         16           0       13.729069    0.163774   -0.197666
     27          6           0       11.147293   -0.952402   -0.451263
     28          6           0       10.501070    0.300331   -0.412483
     29          7           0        9.189180    0.460236   -0.237712
     30          6           0        8.407723   -0.624342   -0.095289
     31          6           0        8.957051   -1.935543   -0.124712
     32          8           0        8.086243   -2.971320    0.033321
     33          6           0        8.600445   -4.300175    0.005785
     34          6           0       10.336502   -2.091247   -0.295534
     35          6           0        6.963750   -0.352186    0.093020
     36          7           0        6.475166    0.871917    0.102303
     37          6           0        5.125188    0.862641    0.289302
     38          6           0        4.519155   -0.374535    0.432811
     39         16           0        5.743170   -1.608214    0.318347
     40          6           0        3.098099   -0.676205    0.646278
     41          6           0        2.097486    0.182087    0.147216
     42          7           0        0.793788   -0.028885    0.333154
     43          6           0        0.379454   -1.113982    1.011575
     44          6           0        1.303827   -2.058368    1.541957
     45          8           0        0.803198   -3.126074    2.204064
     46          6           0        1.725593   -4.069529    2.738866
     47          6           0        2.672307   -1.815735    1.352575
     48          6           0       -1.082219   -1.228694    1.143534
     49          7           0       -1.770781   -2.164885    1.757695
     50          6           0       -3.112607   -1.917499    1.658312
     51          6           0       -3.489068   -0.781643    0.960488
     52         16           0       -2.057431    0.033458    0.388143
     53          6           0       -4.846442   -0.281089    0.707790
     54          6           0       -5.942157   -1.165576    0.646181
     55          7           0       -7.197203   -0.762292    0.444209
     56          6           0       -7.462196    0.545141    0.271054
     57          6           0       -6.427946    1.523945    0.291982
     58          8           0       -6.778639    2.815254    0.099854
     59          6           0       -5.744954    3.795296    0.117721
     60          6           0       -5.114788    1.086802    0.520369
     61          6           0       -8.885855    0.855588    0.062021
     62          7           0       -9.439945    2.030943   -0.135637
     63          6           0      -10.793935    1.904737   -0.285350
     64          6           0      -11.315578    0.624078   -0.204049
     65         16           0      -10.014301   -0.501489    0.081500
     66          6           0      -12.717640    0.206043   -0.332005
     67          6           0      -13.766859    1.083203    0.008640
     68          7           0      -15.056115    0.764138   -0.113669
     69          6           0      -15.406159   -0.453826   -0.564852
     70          6           0      -14.427522   -1.427368   -0.915444
     71          8           0      -14.863696   -2.631668   -1.348602
     72          6           0      -13.886138   -3.608181   -1.693823
     73          6           0      -13.075850   -1.072004   -0.797671
     74          6           0      -16.858465   -0.677899   -0.652212
     75          7           0      -17.489807   -1.752586   -1.069288
     76          6           0      -18.844202   -1.571176   -1.000958
     77          6           0      -19.288463   -0.348408   -0.525424
     78         16           0      -17.908170    0.643883   -0.135982
     79          6           0      -20.673694    0.109116   -0.353588
     80          6           0      -21.712515   -0.809888   -0.107022
     81          7           0      -22.990311   -0.451298    0.029873
     82          6           0      -23.335838    0.845876   -0.048736
     83          6           0      -22.362632    1.861826   -0.271242
     84          8           0      -22.790374    3.144158   -0.325398
     85          6           0      -21.817143    4.160060   -0.542594
     86          6           0      -21.025757    1.468967   -0.429531
     87          6           0      -24.776652    1.107771    0.116593
     88          7           0      -25.397096    2.265118    0.080283
     89          6           0      -26.745289    2.094081    0.275837
     90          6           0      -27.168639    0.798260    0.464228
     91         16           0      -25.825853   -0.286195    0.397612
     92          1           0       27.696805    3.278497    0.726257
     93          1           0       25.983820    5.108661    0.435067
     94          1           0       25.926825   -0.969330   -0.300080
     95          1           0       24.516320   -1.815296    0.445079
     96          1           0       25.669781   -0.903891    1.492614
     97          1           0       26.925398    0.889387    0.687075
     98          1           0       19.599190    3.742872   -0.411015
     99          1           0       17.667391    2.479527    0.478648
    100          1           0       19.270529   -3.114889   -1.331503
    101          1           0       19.074102   -2.367386   -2.969345
    102          1           0       18.191507   -3.886748   -2.556178
    103          1           0       19.721812   -0.853148   -1.372103
    104          1           0       12.816267   -3.035054   -1.636332
    105          1           0       11.086468    1.224918   -0.541404
    106          1           0        7.727447   -4.961672    0.136196
    107          1           0        9.320668   -4.473982    0.832225
    108          1           0        9.090105   -4.524970   -0.964539
    109          1           0       10.793495   -3.087200   -0.286625
    110          1           0        4.590427    1.819348    0.344406
    111          1           0        2.368383    1.070508   -0.442309
    112          1           0        1.108091   -4.844999    3.222439
    113          1           0        2.392841   -3.606949    3.496612
    114          1           0        2.343604   -4.535898    1.942573
    115          1           0        3.420247   -2.501330    1.768257
    116          1           0       -3.816540   -2.600989    2.149575
    117          1           0       -5.790144   -2.250296    0.748835
    118          1           0       -6.248826    4.758991   -0.066053
    119          1           0       -4.994813    3.614586   -0.680801
    120          1           0       -5.231358    3.831693    1.101609
    121          1           0       -4.290656    1.808268    0.570854
    122          1           0      -11.391881    2.802423   -0.486871
    123          1           0      -13.549307    2.082654    0.413718
    124          1           0      -13.241103   -3.866974   -0.827733
    125          1           0      -14.456373   -4.499928   -2.003774
    126          1           0      -13.248028   -3.269611   -2.537316
    127          1           0      -12.288893   -1.780642   -1.081959
    128          1           0      -19.506171   -2.375991   -1.344504
    129          1           0      -21.494454   -1.882954    0.000222
    130          1           0      -21.055691    4.179297    0.265683
    131          1           0      -22.376530    5.110697   -0.539431
    132          1           0      -21.307262    4.038310   -1.521797
    133          1           0      -20.247630    2.215238   -0.629396
    134          1           0      -27.401518    2.973362    0.272753
    135          1           0      -28.186981    0.435853    0.636089
 ---------------------------------------------------------------------

 Alpha virt. eigenvalues --    0.07405   0.07726   0.07877   0.08149   0.08472
 Alpha virt. eigenvalues --    0.08587   0.08995   0.09455   0.09849   0.09914
 Alpha virt. eigenvalues --    0.10006   0.10150   0.10371   0.10804   0.11039

  Beta  occ. eigenvalues --  -88.20860 -88.20723 -88.20199 -88.20119 -88.19888
  Beta  occ. eigenvalues --  -88.19566 -88.18835 -18.92754 -18.92628 -18.91468
  Beta  occ. eigenvalues --  -18.91325 -18.91004 -18.90774 -18.90298 -14.10895
  Beta  occ. eigenvalues --  -14.10830 -14.10604 -14.10341 -14.10017 -14.10010
  Beta  occ. eigenvalues --  -14.09880 -14.09783 -14.09733 -14.09625 -14.09496
  Beta  occ. eigenvalues --  -14.09492 -14.09187 -14.08413 -10.08083 -10.08001
  Beta  occ. eigenvalues --  -10.07975 -10.07864 -10.07589 -10.07552 -10.07370
  Beta  occ. eigenvalues --  -10.07338 -10.06819 -10.06517 -10.06454 -10.06345
  Beta  occ. eigenvalues --  -10.06339 -10.06200 -10.06119 -10.05922 -10.05884
  Beta  occ. eigenvalues --  -10.05735 -10.05556 -10.05356 -10.05279 -10.05139
  Beta  occ. eigenvalues --  -10.05078 -10.05043 -10.04803 -10.04714 -10.04553
  Beta  occ. eigenvalues --  -10.04055 -10.03916 -10.03881 -10.03795 -10.03725
  Beta  occ. eigenvalues --  -10.03682 -10.03617 -10.03585 -10.03537 -10.03496
  Beta  occ. eigenvalues --  -10.03459 -10.03344 -10.03316 -10.03247 -10.03227
  Beta  occ. eigenvalues --  -10.03160 -10.03096 -10.03066 -10.03012 -10.02946
  Beta  occ. eigenvalues --  -10.02845 -10.02798 -10.02782 -10.02610 -10.02587
  Beta  occ. eigenvalues --  -10.02580 -10.02548 -10.02534 -10.02417 -10.02188
  Beta  occ. eigenvalues --  -10.02121 -10.02068 -10.01885 -10.01577 -10.01433
  Beta  occ. eigenvalues --  -10.01400  -7.81147  -7.81010  -7.80496  -7.80423
  Beta  occ. eigenvalues --   -7.80193  -7.79871  -7.79141  -5.83163  -5.83027
  Beta  occ. eigenvalues --   -5.82719  -5.82583  -5.82509  -5.82433  -5.82382
  Beta  occ. eigenvalues --   -5.82244  -5.82203  -5.82070  -5.82000  -5.81881
  Beta  occ. eigenvalues --   -5.81770  -5.81731  -5.81655  -5.81448  -5.81425
  Beta  occ. eigenvalues --   -5.81140  -5.81103  -5.80706  -5.80397  -1.10875
  Beta  occ. eigenvalues --   -1.10749  -1.10012  -1.09878  -1.09553  -1.09324
  Beta  occ. eigenvalues --   -1.08850  -0.98970  -0.98857  -0.98806  -0.98698
  Beta  occ. eigenvalues --   -0.98537  -0.98228  -0.97469  -0.97093  -0.96999
  Beta  occ. eigenvalues --   -0.96706  -0.96470  -0.96432  -0.96397  -0.95743
  Beta  occ. eigenvalues --   -0.86763  -0.86676  -0.86392  -0.86242  -0.86134
  Beta  occ. eigenvalues --   -0.85700  -0.84179  -0.83445  -0.82893  -0.82845
  Beta  occ. eigenvalues --   -0.82835  -0.82519  -0.82249  -0.82082  -0.81925
  Beta  occ. eigenvalues --   -0.81873  -0.81560  -0.81276  -0.81226  -0.80974
  Beta  occ. eigenvalues --   -0.80421  -0.78617  -0.78085  -0.77552  -0.77040
  Beta  occ. eigenvalues --   -0.76650  -0.76287  -0.75611  -0.75543  -0.75500
  Beta  occ. eigenvalues --   -0.74918  -0.74551  -0.74304  -0.73826  -0.73118
  Beta  occ. eigenvalues --   -0.71118  -0.70420  -0.69767  -0.68943  -0.68316
  Beta  occ. eigenvalues --   -0.68199  -0.67739  -0.67026  -0.66585  -0.66374
  Beta  occ. eigenvalues --   -0.66248  -0.66140  -0.66052  -0.65652  -0.62825
  Beta  occ. eigenvalues --   -0.62566  -0.62157  -0.62071  -0.61832  -0.61705
  Beta  occ. eigenvalues --   -0.61471  -0.61375  -0.60989  -0.60962  -0.60837
  Beta  occ. eigenvalues --   -0.60761  -0.60597  -0.60066  -0.59040  -0.58316
  Beta  occ. eigenvalues --   -0.58281  -0.57944  -0.57677  -0.57305  -0.56841
  Beta  occ. eigenvalues --   -0.56428  -0.56241  -0.55811  -0.55643  -0.55577
  Beta  occ. eigenvalues --   -0.55317  -0.54836  -0.54204  -0.54057  -0.53991
  Beta  occ. eigenvalues --   -0.53863  -0.53738  -0.53650  -0.53505  -0.53467
  Beta  occ. eigenvalues --   -0.53075  -0.52895  -0.52780  -0.52672  -0.52337
  Beta  occ. eigenvalues --   -0.52172  -0.52092  -0.51671  -0.51525  -0.51046
  Beta  occ. eigenvalues --   -0.50454  -0.50098  -0.49902  -0.49808  -0.49501
  Beta  occ. eigenvalues --   -0.48829  -0.48804  -0.48676  -0.48554  -0.48404
  Beta  occ. eigenvalues --   -0.48332  -0.48245  -0.48185  -0.48069  -0.47986
  Beta  occ. eigenvalues --   -0.47789  -0.47606  -0.47545  -0.47527  -0.47301
  Beta  occ. eigenvalues --   -0.47154  -0.47128  -0.47102  -0.46756  -0.46542
  Beta  occ. eigenvalues --   -0.46345  -0.46170  -0.46011  -0.45873  -0.45625
  Beta  occ. eigenvalues --   -0.45285  -0.45259  -0.45107  -0.44966  -0.44814
  Beta  occ. eigenvalues --   -0.44673  -0.44578  -0.44447  -0.44310  -0.44074
  Beta  occ. eigenvalues --   -0.44038  -0.44019  -0.43786  -0.43679  -0.43306
  Beta  occ. eigenvalues --   -0.43233  -0.42056  -0.41885  -0.41205  -0.41116
  Beta  occ. eigenvalues --   -0.40891  -0.40641  -0.40543  -0.40440  -0.40351
  Beta  occ. eigenvalues --   -0.40278  -0.39895  -0.39816  -0.39655  -0.39641
  Beta  occ. eigenvalues --   -0.39486  -0.39307  -0.39212  -0.39143  -0.39035
  Beta  occ. eigenvalues --   -0.38905  -0.38454  -0.38422  -0.38242  -0.37752
  Beta  occ. eigenvalues --   -0.37154  -0.36450  -0.35930  -0.35321  -0.33598
  Beta  occ. eigenvalues --   -0.33504  -0.33265  -0.33111  -0.32881  -0.32808
  Beta  occ. eigenvalues --   -0.32376  -0.32225  -0.32038  -0.31978  -0.31843
  Beta  occ. eigenvalues --   -0.31727  -0.31639  -0.31549  -0.31517  -0.31470
  Beta  occ. eigenvalues --   -0.31346  -0.31310  -0.31171  -0.30988  -0.30941
  Beta  occ. eigenvalues --   -0.30791  -0.30732  -0.30571  -0.30367  -0.30147
  Beta  occ. eigenvalues --   -0.30084  -0.29921  -0.29371  -0.28641  -0.27903
  Beta  occ. eigenvalues --   -0.26969  -0.26061  -0.25355  -0.24686
  Beta virt. eigenvalues --   -0.04735  -0.04056  -0.03166  -0.02141  -0.01119
  Beta virt. eigenvalues --   -0.00158   0.00549   0.02235   0.02292   0.02505
  Beta virt. eigenvalues --    0.02572   0.02804   0.02911   0.03274   0.03661

 Mulliken charges and spin densities:
               1          2
     1  C   -0.016859   0.000000
     2  C    0.081400   0.000000
     3  N   -0.159784   0.000000
     4  C    0.045435  -0.000000
     5  C    0.119813   0.000000
     6  O   -0.251163   0.000000
     7  C    0.062039  -0.000000
     8  C    0.022292  -0.000000
     9  C    0.002353   0.000000
    10  N   -0.144674  -0.000000
    11  C    0.126430  -0.000000
    12  C   -0.216336  -0.000000
    13  S    0.143505   0.000000
    14  C    0.000122   0.000000
    15  C    0.085340  -0.000000
    16  N   -0.207189   0.000000
    17  C    0.095283   0.000000
    18  C    0.127704   0.000000
    19  O   -0.202989  -0.000000
    20  C    0.057936   0.000000
    21  C    0.019933  -0.000000
    22  C   -0.017960  -0.000000
    23  N   -0.170150   0.000000
    24  C    0.108252   0.000000
    25  C   -0.217451  -0.000000
    26  S    0.186925   0.000000
    27  C    0.004672   0.000000
    28  C    0.076328  -0.000000
    29  N   -0.156485   0.000000
    30  C    0.052531  -0.000000
    31  C    0.126987   0.000000
    32  O   -0.253152  -0.000000
    33  C    0.064389   0.000000
    34  C    0.022242  -0.000000
    35  C   -0.000102   0.000000
    36  N   -0.145892  -0.000000
    37  C    0.126625  -0.000000
    38  C   -0.216199   0.000000
    39  S    0.143910   0.000000
    40  C    0.000251   0.000000
    41  C    0.084407  -0.000000
    42  N   -0.208240  -0.000000
    43  C    0.094898   0.000000
    44  C    0.128346  -0.000000
    45  O   -0.202228   0.000000
    46  C    0.057679   0.000000
    47  C    0.019855   0.000000
    48  C   -0.014986  -0.000000
    49  N   -0.169348   0.000000
    50  C    0.112544   0.000000
    51  C   -0.217080  -0.000000
    52  S    0.169361   0.000000
    53  C    0.001148   0.000000
    54  C    0.082943  -0.000000
    55  N   -0.208762  -0.000000
    56  C    0.094518  -0.000000
    57  C    0.128743   0.000000
    58  O   -0.202514  -0.000000
    59  C    0.056713   0.000000
    60  C    0.019151  -0.000000
    61  C   -0.014724   0.000000
    62  N   -0.168826   0.000000
    63  C    0.112451  -0.000000
    64  C   -0.216655  -0.000000
    65  S    0.167686  -0.000000
    66  C    0.001030   0.000000
    67  C    0.082538   0.000000
    68  N   -0.208448  -0.000000
    69  C    0.094256  -0.000000
    70  C    0.128342   0.000000
    71  O   -0.202419  -0.000000
    72  C    0.057003   0.000000
    73  C    0.018833  -0.000000
    74  C   -0.015522  -0.000000
    75  N   -0.169199  -0.000000
    76  C    0.111948  -0.000000
    77  C   -0.215945  -0.000000
    78  S    0.167068  -0.000000
    79  C    0.000216   0.000000
    80  C    0.080965  -0.000000
    81  N   -0.206542   0.000000
    82  C    0.102850  -0.000000
    83  C    0.125781  -0.000000
    84  O   -0.202130  -0.000000
    85  C    0.057451  -0.000000
    86  C    0.017829   0.000000
    87  C   -0.036011  -0.000000
    88  N   -0.173968  -0.000000
    89  C    0.109981   0.000000
    90  C   -0.167275   0.000000
    91  S    0.175152  -0.000000
    92  H   -0.009045  -0.000000
    93  H    0.003099  -0.000000
    94  H    0.051856  -0.000000
    95  H    0.057014   0.000000
    96  H    0.052919  -0.000000
    97  H   -0.005645  -0.000000
    98  H    0.004664  -0.000000
    99  H   -0.000020  -0.000000
   100  H    0.045582  -0.000000
   101  H    0.049700  -0.000000
   102  H    0.057920  -0.000000
   103  H   -0.012245   0.000000
   104  H   -0.007144  -0.000000
   105  H    0.004828  -0.000000
   106  H    0.056474   0.000000
   107  H    0.054241   0.000000
   108  H    0.052216  -0.000000
   109  H   -0.015287  -0.000000
   110  H    0.003577   0.000000
   111  H   -0.001304   0.000000
   112  H    0.059061   0.000000
   113  H    0.049570   0.000000
   114  H    0.045919  -0.000000
   115  H   -0.011832  -0.000000
   116  H    0.000260  -0.000000
   117  H   -0.003580   0.000000
   118  H    0.058856   0.000000
   119  H    0.049567  -0.000000
   120  H    0.050057   0.000000
   121  H   -0.007425   0.000000
   122  H   -0.000152   0.000000
   123  H   -0.003535  -0.000000
   124  H    0.048982  -0.000000
   125  H    0.058393  -0.000000
   126  H    0.049455  -0.000000
   127  H   -0.008077   0.000000
   128  H   -0.000356   0.000000
   129  H   -0.004111  -0.000000
   130  H    0.047954   0.000000
   131  H    0.057028   0.000000
   132  H    0.048268  -0.000000
   133  H   -0.009225   0.000000
   134  H   -0.006147  -0.000000
   135  H    0.020495  -0.000000
 Sum of Mulliken charges =  -0.00000  -0.00000

 Dipole moment (field-independent basis, Debye):
    X=             18.9914    Y=             -8.3788    Z=             -0.1553  Tot=             20.7582
 Quadrupole moment (field-independent basis, Debye-Ang):
   XX=           -425.7113   YY=           -511.7768   ZZ=           -565.1502
   XY=           -152.3583   XZ=             15.3461   YZ=             -0.4012

 Normal termination of Gaussian 16 at Fri Jul 24 23:24:26 2020.
