 Gaussian 16, Revision A.03,
 Gaussian 16:  EM64L-G16RevA.03 25-Dec-2016

 ---------------------------------------------------------------
 #P uLC-wPBE/cc-pVDZ iop(3/107=0369500000, 3/108=0369500000) opt
 ---------------------------------------------------------------

 -------------
 H26 C33 S3 O3
 -------------
 Symbolic Z-matrix:
 Charge =  0 Multiplicity = 1

 SCF Done:  E(ULC-wPBE) =  -2691.89867282     A.U. after   17 cycles
 SCF Done:  E(ULC-wPBE) =  -2691.95923227     A.U. after   15 cycles
 SCF Done:  E(ULC-wPBE) =  -2692.00403959     A.U. after   16 cycles
 SCF Done:  E(ULC-wPBE) =  -2692.00734754     A.U. after   13 cycles
 SCF Done:  E(ULC-wPBE) =  -2692.00890481     A.U. after   16 cycles
 SCF Done:  E(ULC-wPBE) =  -2692.00950478     A.U. after   13 cycles
 SCF Done:  E(ULC-wPBE) =  -2692.00973339     A.U. after   15 cycles
 SCF Done:  E(ULC-wPBE) =  -2692.00981600     A.U. after   12 cycles
 SCF Done:  E(ULC-wPBE) =  -2692.00984455     A.U. after   12 cycles
 SCF Done:  E(ULC-wPBE) =  -2692.00985552     A.U. after   12 cycles
 SCF Done:  E(ULC-wPBE) =  -2692.00985825     A.U. after   11 cycles
 SCF Done:  E(ULC-wPBE) =  -2692.00985892     A.U. after    9 cycles
 SCF Done:  E(ULC-wPBE) =  -2692.00985902     A.U. after    8 cycles
 SCF Done:  E(ULC-wPBE) =  -2692.00985908     A.U. after    7 cycles
 SCF Done:  E(ULC-wPBE) =  -2692.00985907     A.U. after    7 cycles
 SCF Done:  E(ULC-wPBE) =  -2692.00985913     A.U. after    6 cycles
 Optimization completed.
    -- Stationary point found.

                         Standard orientation:
 ---------------------------------------------------------------------
 Center     Atomic      Atomic             Coordinates (Angstroms)
 Number     Number       Type             X           Y           Z
 ---------------------------------------------------------------------
      1          6           0       10.139524   -3.214771    0.327356
      2          6           0        8.912708   -3.645333   -0.152229
      3          6           0        7.893223   -2.717719   -0.334709
      4          6           0        8.062913   -1.363583   -0.044845
      5          6           0        9.320850   -0.943166    0.437639
      6          8           0        9.458069    0.379994    0.704355
      7          6           0       10.670800    0.826333    1.266452
      8          6           0       10.345311   -1.869765    0.620924
      9          6           0        6.945543   -0.417305   -0.227559
     10          6           0        6.957711    0.900949   -0.598273
     11          6           0        5.658062    1.464897   -0.704426
     12          6           0        4.656217    0.580903   -0.406745
     13         16           0        5.317893   -0.955781    0.017446
     14          6           0        3.201497    0.812157   -0.408568
     15          6           0        2.301179   -0.200287   -0.732318
     16          6           0        0.938012    0.060921   -0.736569
     17          6           0        0.416789    1.316457   -0.425744
     18          6           0        1.335100    2.339213   -0.103764
     19          8           0        0.810113    3.552346    0.198486
     20          6           0        1.684099    4.578473    0.610806
     21          6           0        2.701540    2.079921   -0.090762
     22          6           0       -1.039523    1.542901   -0.418744
     23          6           0       -1.759536    2.670363   -0.713079
     24          6           0       -3.164427    2.477149   -0.628646
     25          6           0       -3.517246    1.206738   -0.261997
     26         16           0       -2.107728    0.242375   -0.007027
     27          6           0       -4.870323    0.656142   -0.073479
     28          6           0       -5.911102    1.472253    0.364504
     29          6           0       -7.184075    0.943094    0.524796
     30          6           0       -7.474764   -0.396480    0.267474
     31          6           0       -6.413299   -1.220452   -0.162552
     32          8           0       -6.712661   -2.520569   -0.403747
     33          6           0       -5.697356   -3.361287   -0.903522
     34          6           0       -5.137381   -0.692331   -0.333243
     35          6           0       -8.847486   -0.910773    0.431195
     36          6           0       -9.283152   -2.148279    0.824146
     37          6           0      -10.701885   -2.245396    0.899563
     38          6           0      -11.325112   -1.084417    0.553477
     39         16           0      -10.197449    0.134375    0.131877
     40          1           0       10.956344   -3.924969    0.475562
     41          1           0        8.744920   -4.697029   -0.391495
     42          1           0        6.928932   -3.050191   -0.727309
     43          1           0       10.548655    1.902924    1.438001
     44          1           0       10.879235    0.330001    2.229256
     45          1           0       11.522113    0.665599    0.583217
     46          1           0       11.316992   -1.549294    0.996314
     47          1           0        7.877628    1.444598   -0.801235
     48          1           0        5.468974    2.490712   -1.023172
     49          1           0        2.664618   -1.192613   -1.006718
     50          1           0        0.246180   -0.739165   -1.010975
     51          1           0        2.397924    4.851379   -0.184941
     52          1           0        2.242599    4.295533    1.518826
     53          1           0        1.050347    5.445075    0.835605
     54          1           0        3.404671    2.861856    0.193610
     55          1           0       -1.288953    3.609243   -0.995627
     56          1           0       -3.896631    3.251301   -0.860665
     57          1           0       -5.721821    2.518732    0.608644
     58          1           0       -7.986268    1.591578    0.885623
     59          1           0       -6.162095   -4.343901   -1.050674
     60          1           0       -5.308867   -2.998489   -1.869987
     61          1           0       -4.861593   -3.460968   -0.190353
     62          1           0       -4.328176   -1.327256   -0.694349
     63          1           0       -8.600675   -2.962629    1.057001
     64          1           0      -11.235299   -3.147588    1.200731
     65          1           0      -12.393831   -0.879201    0.516250
 ---------------------------------------------------------------------

 The electronic state is 1-A.
 Alpha  occ. eigenvalues --  -88.29803 -88.29711 -88.29358 -19.00384 -19.00364
 Alpha  occ. eigenvalues --  -19.00052 -10.17343 -10.17289 -10.17051 -10.16387
 Alpha  occ. eigenvalues --  -10.16287 -10.15958 -10.13663 -10.13614 -10.13577
 Alpha  occ. eigenvalues --  -10.13455 -10.13168 -10.12812 -10.12563 -10.12344
 Alpha  occ. eigenvalues --  -10.12283 -10.12237 -10.11926 -10.11295 -10.11259
 Alpha  occ. eigenvalues --  -10.11194 -10.10967 -10.10875 -10.10834 -10.10591
 Alpha  occ. eigenvalues --  -10.10516 -10.10383 -10.10315 -10.10287 -10.10162
 Alpha  occ. eigenvalues --  -10.10118 -10.10059 -10.10033 -10.09640  -7.90518
 Alpha  occ. eigenvalues --   -7.90427  -7.90085  -5.92144  -5.92052  -5.91704
 Alpha  occ. eigenvalues --   -5.91625  -5.91536  -5.91226  -5.91183  -5.91132
 Alpha  occ. eigenvalues --   -5.90807  -1.19977  -1.19968  -1.19660  -1.03276
 Alpha  occ. eigenvalues --   -1.02949  -1.02082  -1.00356  -0.99541  -0.98935
 Alpha  occ. eigenvalues --   -0.93607  -0.92037  -0.90524  -0.89231  -0.88978
 Alpha  occ. eigenvalues --   -0.88867  -0.86752  -0.86459  -0.86314  -0.85929
 Alpha  occ. eigenvalues --   -0.84701  -0.84069  -0.83172  -0.82739  -0.80990
 Alpha  occ. eigenvalues --   -0.76648  -0.74824  -0.73586  -0.72973  -0.72634
 Alpha  occ. eigenvalues --   -0.72145  -0.68531  -0.68227  -0.68042  -0.67605
 Alpha  occ. eigenvalues --   -0.66819  -0.66672  -0.65151  -0.64462  -0.63718
 Alpha  occ. eigenvalues --   -0.62641  -0.62083  -0.61311  -0.60755  -0.60345
 Alpha  occ. eigenvalues --   -0.60090  -0.59923  -0.59570  -0.59564  -0.58694
 Alpha  occ. eigenvalues --   -0.57674  -0.56563  -0.56407  -0.55894  -0.54983
 Alpha  occ. eigenvalues --   -0.53745  -0.53573  -0.53308  -0.52973  -0.52682
 Alpha  occ. eigenvalues --   -0.52148  -0.51853  -0.51108  -0.51014  -0.50721
 Alpha  occ. eigenvalues --   -0.50142  -0.49876  -0.49308  -0.48981  -0.48775
 Alpha  occ. eigenvalues --   -0.48424  -0.48207  -0.48006  -0.47690  -0.47026
 Alpha  occ. eigenvalues --   -0.46780  -0.46578  -0.44845  -0.44562  -0.44421
 Alpha  occ. eigenvalues --   -0.44178  -0.44050  -0.43858  -0.43182  -0.42901
 Alpha  occ. eigenvalues --   -0.42570  -0.39910  -0.38449  -0.36629  -0.34970
 Alpha  occ. eigenvalues --   -0.34853  -0.34438  -0.33785  -0.33509  -0.33411
 Alpha  occ. eigenvalues --   -0.31709  -0.29606  -0.27556
 Alpha virt. eigenvalues --    0.00934   0.03234   0.05845   0.07671   0.08180
 Alpha virt. eigenvalues --    0.08263   0.08729   0.10872   0.12557   0.13519
 Alpha virt. eigenvalues --    0.13948   0.14518   0.14725   0.14864   0.15544

  Beta  occ. eigenvalues --  -88.29803 -88.29711 -88.29358 -19.00384 -19.00364
  Beta  occ. eigenvalues --  -19.00052 -10.17343 -10.17289 -10.17051 -10.16387
  Beta  occ. eigenvalues --  -10.16287 -10.15958 -10.13663 -10.13614 -10.13577
  Beta  occ. eigenvalues --  -10.13455 -10.13168 -10.12812 -10.12563 -10.12344
  Beta  occ. eigenvalues --  -10.12283 -10.12237 -10.11926 -10.11295 -10.11259
  Beta  occ. eigenvalues --  -10.11194 -10.10967 -10.10875 -10.10834 -10.10591
  Beta  occ. eigenvalues --  -10.10516 -10.10383 -10.10315 -10.10287 -10.10162
  Beta  occ. eigenvalues --  -10.10118 -10.10059 -10.10033 -10.09640  -7.90518
  Beta  occ. eigenvalues --   -7.90427  -7.90085  -5.92144  -5.92052  -5.91704
  Beta  occ. eigenvalues --   -5.91625  -5.91536  -5.91226  -5.91183  -5.91132
  Beta  occ. eigenvalues --   -5.90807  -1.19977  -1.19968  -1.19660  -1.03276
  Beta  occ. eigenvalues --   -1.02949  -1.02082  -1.00356  -0.99541  -0.98935
  Beta  occ. eigenvalues --   -0.93607  -0.92037  -0.90524  -0.89231  -0.88978
  Beta  occ. eigenvalues --   -0.88867  -0.86752  -0.86459  -0.86314  -0.85929
  Beta  occ. eigenvalues --   -0.84701  -0.84069  -0.83172  -0.82739  -0.80990
  Beta  occ. eigenvalues --   -0.76648  -0.74824  -0.73586  -0.72973  -0.72634
  Beta  occ. eigenvalues --   -0.72145  -0.68531  -0.68227  -0.68042  -0.67605
  Beta  occ. eigenvalues --   -0.66819  -0.66672  -0.65151  -0.64462  -0.63718
  Beta  occ. eigenvalues --   -0.62641  -0.62083  -0.61311  -0.60755  -0.60345
  Beta  occ. eigenvalues --   -0.60090  -0.59923  -0.59570  -0.59564  -0.58694
  Beta  occ. eigenvalues --   -0.57674  -0.56563  -0.56407  -0.55894  -0.54983
  Beta  occ. eigenvalues --   -0.53745  -0.53573  -0.53308  -0.52973  -0.52682
  Beta  occ. eigenvalues --   -0.52148  -0.51853  -0.51108  -0.51014  -0.50721
  Beta  occ. eigenvalues --   -0.50142  -0.49876  -0.49308  -0.48981  -0.48775
  Beta  occ. eigenvalues --   -0.48424  -0.48207  -0.48006  -0.47690  -0.47026
  Beta  occ. eigenvalues --   -0.46780  -0.46578  -0.44845  -0.44562  -0.44421
  Beta  occ. eigenvalues --   -0.44178  -0.44050  -0.43858  -0.43182  -0.42901
  Beta  occ. eigenvalues --   -0.42570  -0.39910  -0.38449  -0.36629  -0.34970
  Beta  occ. eigenvalues --   -0.34853  -0.34438  -0.33785  -0.33509  -0.33411
  Beta  occ. eigenvalues --   -0.31709  -0.29606  -0.27556
  Beta virt. eigenvalues --    0.00934   0.03234   0.05845   0.07671   0.08180
  Beta virt. eigenvalues --    0.08263   0.08729   0.10872   0.12557   0.13519
  Beta virt. eigenvalues --    0.13948   0.14518   0.14725   0.14864   0.15544

 Mulliken charges and spin densities:
               1          2
     1  C    0.012393   0.000000
     2  C    0.010224  -0.000000
     3  C   -0.002902   0.000000
     4  C    0.012322  -0.000000
     5  C    0.097607   0.000000
     6  O   -0.252652  -0.000000
     7  C    0.047376  -0.000000
     8  C   -0.045840  -0.000000
     9  C   -0.145322  -0.000000
    10  C    0.041788   0.000000
    11  C    0.018078   0.000000
    12  C   -0.160420  -0.000000
    13  S    0.158673   0.000000
    14  C    0.049774   0.000000
    15  C   -0.005365  -0.000000
    16  C    0.007582   0.000000
    17  C    0.027306  -0.000000
    18  C    0.108267   0.000000
    19  O   -0.253695   0.000000
    20  C    0.049776   0.000000
    21  C   -0.047089   0.000000
    22  C   -0.146397   0.000000
    23  C    0.038311   0.000000
    24  C    0.023933  -0.000000
    25  C   -0.160380   0.000000
    26  S    0.148654  -0.000000
    27  C    0.054741  -0.000000
    28  C   -0.010754  -0.000000
    29  C    0.012285  -0.000000
    30  C    0.029523   0.000000
    31  C    0.105684  -0.000000
    32  O   -0.252807  -0.000000
    33  C    0.048292   0.000000
    34  C   -0.047932  -0.000000
    35  C   -0.149105  -0.000000
    36  C    0.009832  -0.000000
    37  C    0.047835   0.000000
    38  C   -0.144134  -0.000000
    39  S    0.144470   0.000000
    40  H    0.002029   0.000000
    41  H   -0.001665   0.000000
    42  H    0.004885   0.000000
    43  H    0.059944  -0.000000
    44  H    0.051357   0.000000
    45  H    0.050090   0.000000
    46  H    0.004721  -0.000000
    47  H   -0.003493   0.000000
    48  H   -0.003908   0.000000
    49  H   -0.003867   0.000000
    50  H    0.002962   0.000000
    51  H    0.048935   0.000000
    52  H    0.054242   0.000000
    53  H    0.060325  -0.000000
    54  H   -0.002413  -0.000000
    55  H   -0.003083  -0.000000
    56  H   -0.000472  -0.000000
    57  H   -0.010388  -0.000000
    58  H    0.004456  -0.000000
    59  H    0.059494  -0.000000
    60  H    0.053621  -0.000000
    61  H    0.052012  -0.000000
    62  H    0.003523   0.000000
    63  H   -0.000001  -0.000000
    64  H    0.002123  -0.000000
    65  H    0.034636  -0.000000
 Sum of Mulliken charges =  -0.00000   0.00000

 Dipole moment (field-independent basis, Debye):
    X=              4.7785    Y=              0.9361    Z=              0.3845  Tot=              4.8845
 Quadrupole moment (field-independent basis, Debye-Ang):
   XX=           -198.4632   YY=           -208.7498   ZZ=           -252.9093
   XY=             15.8887   XZ=              9.9624   YZ=              4.7640

 Normal termination of Gaussian 16 at Thu Jul 23 19:00:16 2020.
