 Gaussian 16, Revision A.03,
 Gaussian 16:  EM64L-G16RevA.03 25-Dec-2016

 ---------------------------------------------------------------
 #P uLC-wPBE/cc-pVDZ iop(3/107=0248300000, 3/108=0248300000) opt
 ---------------------------------------------------------------

 ---------------
 H9 C10 S1 N1 O1
 ---------------
 Symbolic Z-matrix:
 Charge =  0 Multiplicity = 1

 SCF Done:  E(ULC-wPBE) =  -914.058961694     A.U. after   16 cycles
 SCF Done:  E(ULC-wPBE) =  -914.087905300     A.U. after   14 cycles
 SCF Done:  E(ULC-wPBE) =  -914.093506410     A.U. after   14 cycles
 SCF Done:  E(ULC-wPBE) =  -914.095065097     A.U. after   15 cycles
 SCF Done:  E(ULC-wPBE) =  -914.095352372     A.U. after   14 cycles
 SCF Done:  E(ULC-wPBE) =  -914.095809819     A.U. after   13 cycles
 SCF Done:  E(ULC-wPBE) =  -914.095837727     A.U. after   12 cycles
 SCF Done:  E(ULC-wPBE) =  -914.095858856     A.U. after   11 cycles
 SCF Done:  E(ULC-wPBE) =  -914.095874252     A.U. after   11 cycles
 SCF Done:  E(ULC-wPBE) =  -914.095887933     A.U. after   11 cycles
 SCF Done:  E(ULC-wPBE) =  -914.095892129     A.U. after   10 cycles
 SCF Done:  E(ULC-wPBE) =  -914.095892884     A.U. after    9 cycles
 Optimization completed.
    -- Stationary point found.

                         Standard orientation:
 ---------------------------------------------------------------------
 Center     Atomic      Atomic             Coordinates (Angstroms)
 Number     Number       Type             X           Y           Z
 ---------------------------------------------------------------------
      1          6           0        3.746781    0.398068   -0.000192
      2          6           0        2.884509    1.495605   -0.000073
      3          6           0        1.507872    1.283505    0.000194
      4          6           0        1.030729   -0.040119    0.000233
      5          7           0        1.860431   -1.104050    0.000105
      6          6           0        3.176384   -0.876603   -0.000073
      7          6           0       -0.398895   -0.376379   -0.000128
      8          6           0       -1.530167    0.428691    0.000097
      9          8           0       -1.424356    1.788266    0.000445
     10          6           0       -2.638600    2.522592   -0.000374
     11          6           0       -2.751587   -0.316966    0.000102
     12          6           0       -2.518446   -1.669600   -0.000101
     13         16           0       -0.846966   -2.057289   -0.000022
     14          1           0        4.835528    0.521994   -0.000496
     15          1           0        3.281844    2.518470   -0.000186
     16          1           0        0.800403    2.116466    0.000359
     17          1           0        3.814961   -1.772609    0.000044
     18          1           0       -3.244731    2.309807    0.902610
     19          1           0       -3.243058    2.310472   -0.904618
     20          1           0       -2.353449    3.586727    0.000477
     21          1           0       -3.752834    0.120872    0.000116
     22          1           0       -3.266843   -2.466120   -0.000349
 ---------------------------------------------------------------------

 The electronic state is 1-A.
 Alpha  occ. eigenvalues --  -88.23044 -18.94339 -14.12724 -10.09905 -10.09841
 Alpha  occ. eigenvalues --  -10.08127 -10.06688 -10.06444 -10.05557 -10.05291
 Alpha  occ. eigenvalues --  -10.04288 -10.04107 -10.03867  -7.83425  -5.85368
 Alpha  occ. eigenvalues --   -5.84880  -5.84502  -1.12865  -1.00371  -0.94675
 Alpha  occ. eigenvalues --   -0.86652  -0.84862  -0.82039  -0.79406  -0.75770
 Alpha  occ. eigenvalues --   -0.70114  -0.69924  -0.64118  -0.63027  -0.61479
 Alpha  occ. eigenvalues --   -0.56591  -0.55133  -0.55129  -0.54677  -0.51587
 Alpha  occ. eigenvalues --   -0.50898  -0.49630  -0.48685  -0.47691  -0.46446
 Alpha  occ. eigenvalues --   -0.45172  -0.43809  -0.41777  -0.40507  -0.40390
 Alpha  occ. eigenvalues --   -0.37040  -0.35433  -0.32437  -0.31075  -0.27523
 Alpha virt. eigenvalues --    0.01937   0.05134   0.08980   0.11602   0.13501
 Alpha virt. eigenvalues --    0.14434   0.15480   0.16056   0.17318   0.18621
 Alpha virt. eigenvalues --    0.19171   0.20406   0.21174   0.21309   0.22625

  Beta  occ. eigenvalues --  -88.23044 -18.94339 -14.12724 -10.09905 -10.09841
  Beta  occ. eigenvalues --  -10.08127 -10.06688 -10.06444 -10.05557 -10.05291
  Beta  occ. eigenvalues --  -10.04288 -10.04107 -10.03867  -7.83425  -5.85368
  Beta  occ. eigenvalues --   -5.84880  -5.84502  -1.12865  -1.00371  -0.94675
  Beta  occ. eigenvalues --   -0.86652  -0.84862  -0.82039  -0.79406  -0.75770
  Beta  occ. eigenvalues --   -0.70114  -0.69924  -0.64118  -0.63027  -0.61479
  Beta  occ. eigenvalues --   -0.56591  -0.55133  -0.55129  -0.54677  -0.51587
  Beta  occ. eigenvalues --   -0.50898  -0.49630  -0.48685  -0.47691  -0.46446
  Beta  occ. eigenvalues --   -0.45172  -0.43809  -0.41777  -0.40507  -0.40390
  Beta  occ. eigenvalues --   -0.37040  -0.35433  -0.32437  -0.31075  -0.27523
  Beta virt. eigenvalues --    0.01937   0.05134   0.08980   0.11602   0.13501
  Beta virt. eigenvalues --    0.14434   0.15480   0.16056   0.17318   0.18621
  Beta virt. eigenvalues --    0.19171   0.20406   0.21174   0.21309   0.22625

 Mulliken charges and spin densities:
               1          2
     1  C   -0.041438  -0.000000
     2  C    0.072652  -0.000000
     3  C   -0.012143   0.000000
     4  C    0.137971  -0.000000
     5  N   -0.219474  -0.000000
     6  C    0.091137   0.000000
     7  C   -0.184534  -0.000000
     8  C    0.112392   0.000000
     9  O   -0.253095   0.000000
    10  C    0.061745  -0.000000
    11  C    0.021969   0.000000
    12  C   -0.127493   0.000000
    13  S    0.201779   0.000000
    14  H   -0.010443   0.000000
    15  H   -0.006791   0.000000
    16  H   -0.007289   0.000000
    17  H    0.003141  -0.000000
    18  H    0.046291   0.000000
    19  H    0.046290  -0.000000
    20  H    0.051360  -0.000000
    21  H   -0.006499  -0.000000
    22  H    0.022469  -0.000000
 Sum of Mulliken charges =  -0.00000   0.00000

 Dipole moment (field-independent basis, Debye):
    X=             -1.5516    Y=              2.4558    Z=             -0.0009  Tot=              2.9049
 Quadrupole moment (field-independent basis, Debye-Ang):
   XX=            -64.0345   YY=            -74.8512   ZZ=            -85.9756
   XY=             -0.6785   XZ=              0.0007   YZ=             -0.0012

 Normal termination of Gaussian 16 at Sat Jul 25 13:44:50 2020.
