 Gaussian 16, Revision A.03,
 Gaussian 16:  EM64L-G16RevA.03 25-Dec-2016

 ---------------------------------------------------------------
 #P uLC-wPBE/cc-pVDZ iop(3/107=0075900000, 3/108=0075900000) opt
 ---------------------------------------------------------------

 ---------------
 H30 C70 N14 F14
 ---------------
 Symbolic Z-matrix:
 Charge =  0 Multiplicity = 1

 SCF Done:  E(ULC-wPBE) =  -4845.21894694     A.U. after   16 cycles
 SCF Done:  E(ULC-wPBE) =  -4845.31621582     A.U. after   14 cycles
 SCF Done:  E(ULC-wPBE) =  -4845.40980480     A.U. after   17 cycles
 SCF Done:  E(ULC-wPBE) =  -4845.43788671     A.U. after   15 cycles
 SCF Done:  E(ULC-wPBE) =  -4845.44488293     A.U. after   14 cycles
 SCF Done:  E(ULC-wPBE) =  -4845.44762744     A.U. after   17 cycles
 SCF Done:  E(ULC-wPBE) =  -4845.44879680     A.U. after   17 cycles
 SCF Done:  E(ULC-wPBE) =  -4845.44906679     A.U. after   14 cycles
 SCF Done:  E(ULC-wPBE) =  -4845.44930106     A.U. after   14 cycles
 SCF Done:  E(ULC-wPBE) =  -4845.44932116     A.U. after   11 cycles
 SCF Done:  E(ULC-wPBE) =  -4845.44932848     A.U. after   11 cycles
 SCF Done:  E(ULC-wPBE) =  -4845.44933017     A.U. after   11 cycles
 SCF Done:  E(ULC-wPBE) =  -4845.44933114     A.U. after   10 cycles
 SCF Done:  E(ULC-wPBE) =  -4845.44933141     A.U. after    7 cycles
 SCF Done:  E(ULC-wPBE) =  -4845.44933143     A.U. after    6 cycles
 SCF Done:  E(ULC-wPBE) =  -4845.44933148     A.U. after    6 cycles
 Optimization completed.
    -- Stationary point found.

                         Standard orientation:
 ---------------------------------------------------------------------
 Center     Atomic      Atomic             Coordinates (Angstroms)
 Number     Number       Type             X           Y           Z
 ---------------------------------------------------------------------
      1          6           0      -29.130880   -0.172128    0.318919
      2          6           0      -28.440569    0.794639    1.058730
      3          6           0      -27.045187    0.743338    1.065021
      4          9           0      -26.367457    1.646081    1.804222
      5          6           0      -26.363492   -0.257402    0.336410
      6          7           0      -27.043685   -1.193585   -0.361621
      7          6           0      -28.384761   -1.144106   -0.366075
      8          6           0      -24.877068   -0.316862    0.286605
      9          7           0      -24.206324    0.853060    0.202196
     10          6           0      -22.870372    0.833195    0.126376
     11          6           0      -22.086128   -0.344328    0.136464
     12          6           0      -22.782978   -1.564418    0.230638
     13          6           0      -24.174255   -1.543029    0.304778
     14          9           0      -24.826607   -2.715571    0.439631
     15          6           0      -20.610135   -0.293914    0.050267
     16          6           0      -19.872189   -1.278811   -0.633901
     17          6           0      -18.483163   -1.175342   -0.675372
     18          9           0      -17.792421   -2.101138   -1.371206
     19          6           0      -17.823104   -0.097912   -0.041558
     20          7           0      -18.533425    0.850033    0.609394
     21          6           0      -19.866655    0.748254    0.653693
     22          6           0      -16.342374    0.032742   -0.041678
     23          7           0      -15.614877   -1.101028    0.068449
     24          6           0      -14.279997   -1.017444    0.099920
     25          6           0      -13.552141    0.193283    0.016399
     26          6           0      -14.307964    1.375159   -0.104981
     27          6           0      -15.698372    1.288037   -0.133068
     28          9           0      -16.407734    2.423215   -0.294520
     29          6           0      -12.073554    0.214054    0.056727
     30          6           0      -11.362517    1.261124    0.673876
     31          6           0       -9.969550    1.223780    0.674157
     32          9           0       -9.302732    2.210100    1.306984
     33          6           0       -9.279059    0.150828    0.065423
     34          7           0       -9.963269   -0.856654   -0.520769
     35          6           0      -11.300570   -0.818499   -0.525655
     36          6           0       -7.794468    0.088381    0.022282
     37          7           0       -7.125959    1.248076   -0.165173
     38          6           0       -5.791800    1.221252   -0.256300
     39          6           0       -5.006677    0.047006   -0.174084
     40          6           0       -5.699099   -1.159435    0.045142
     41          6           0       -7.088700   -1.129743    0.148868
     42          9           0       -7.737775   -2.286663    0.388983
     43          6           0       -3.532772    0.091502   -0.290353
     44          6           0       -2.884193    0.999267   -1.149788
     45          6           0       -1.491409    1.000513   -1.202632
     46          9           0       -0.884796    1.842677   -2.063023
     47          6           0       -0.740017    0.104508   -0.408476
     48          7           0       -1.364914   -0.771773    0.409534
     49          6           0       -2.701276   -0.769431    0.464242
     50          6           0        0.746414    0.093728   -0.418090
     51          7           0        1.378634    1.284532   -0.513946
     52          6           0        2.715259    1.314928   -0.476421
     53          6           0        3.538973    0.173102   -0.336376
     54          6           0        2.883588   -1.070968   -0.261007
     55          6           0        1.490999   -1.102862   -0.309724
     56          9           0        0.876094   -2.301914   -0.267619
     57          6           0        5.013557    0.283055   -0.293400
     58          6           0        5.656411    1.372219    0.325873
     59          6           0        7.048842    1.414800    0.315572
     60          9           0        7.673797    2.431484    0.953969
     61          6           0        7.802209    0.395681   -0.299487
     62          7           0        7.186707   -0.655314   -0.883256
     63          6           0        5.849552   -0.697450   -0.880480
     64          6           0        9.293082    0.386936   -0.293219
     65          7           0        9.896477   -0.778540    0.025667
     66          6           0       11.233201   -0.832763    0.012453
     67          6           0       12.080372    0.249775   -0.327337
     68          6           0       11.449950    1.460808   -0.672312
     69          6           0       10.058049    1.514358   -0.651234
     70          9           0        9.444691    2.659386   -1.031734
     71          6           0       13.553476    0.115756   -0.312141
     72          6           0       14.194095   -1.082574   -0.682144
     73          6           0       15.585548   -1.145678   -0.633531
     74          9           0       16.188478   -2.283104   -1.034086
     75          6           0       16.343747   -0.025810   -0.221880
     76          7           0       15.726759    1.125832    0.125147
     77          6           0       14.391153    1.184878    0.083910
     78          6           0       17.827124   -0.063889   -0.134107
     79          7           0       18.397624   -1.209575    0.301022
     80          6           0       19.728715   -1.268020    0.418825
     81          6           0       20.608563   -0.204385    0.107764
     82          6           0       20.016844    0.987100   -0.354344
     83          6           0       18.629438    1.049915   -0.470977
     84          9           0       18.078756    2.180726   -0.957466
     85          6           0       22.073030   -0.336255    0.268858
     86          6           0       22.740426   -1.552083    0.023879
     87          6           0       24.120720   -1.611660    0.207204
     88          9           0       24.754304   -2.768124   -0.074607
     89          6           0       24.841523   -0.471780    0.629596
     90          7           0       24.200155    0.695937    0.856438
     91          6           0       22.874285    0.752252    0.686049
     92          6           0       26.311571   -0.507043    0.860121
     93          7           0       26.820455   -1.617785    1.437707
     94          6           0       28.137197   -1.664431    1.692478
     95          6           0       29.026784   -0.621450    1.389959
     96          6           0       28.516793    0.528846    0.777379
     97          6           0       27.147041    0.577799    0.510749
     98          9           0       26.647438    1.664821   -0.113707
     99          1           0      -30.229408   -0.174165    0.279533
    100          1           0      -28.952627    1.578401    1.633559
    101          1           0      -28.892176   -1.926560   -0.953675
    102          1           0      -22.383450    1.816665    0.023629
    103          1           0      -22.264019   -2.531819    0.280833
    104          1           0      -20.357841   -2.109583   -1.164547
    105          1           0      -20.386445    1.531564    1.228972
    106          1           0      -13.744817   -1.972564    0.226811
    107          1           0      -13.836795    2.362214   -0.211554
    108          1           0      -11.870312    2.091166    1.184555
    109          1           0      -11.799852   -1.649600   -1.049760
    110          1           0       -5.302046    2.200783   -0.384179
    111          1           0       -5.182387   -2.126113    0.119292
    112          1           0       -3.440392    1.683046   -1.805555
    113          1           0       -3.150587   -1.482900    1.174683
    114          1           0        3.173486    2.312030   -0.584051
    115          1           0        3.432156   -2.015944   -0.146743
    116          1           0        5.099605    2.162621    0.847359
    117          1           0        5.399489   -1.558685   -1.401620
    118          1           0       11.673713   -1.797037    0.315697
    119          1           0       12.015654    2.346100   -0.993141
    120          1           0       13.635769   -1.958094   -1.040865
    121          1           0       13.945466    2.138734    0.411474
    122          1           0       20.131776   -2.216263    0.811222
    123          1           0       20.614589    1.857306   -0.658263
    124          1           0       22.214512   -2.445434   -0.339895
    125          1           0       22.403999    1.721744    0.919927
    126          1           0       28.501711   -2.589424    2.168373
    127          1           0       30.097408   -0.708825    1.623288
    128          1           0       29.150471    1.380978    0.495892
 ---------------------------------------------------------------------

 Alpha virt. eigenvalues --   -0.01429  -0.01201  -0.00471   0.00457   0.01246
 Alpha virt. eigenvalues --    0.02120   0.02731   0.03054   0.07207   0.07241
 Alpha virt. eigenvalues --    0.07399   0.07655   0.07804   0.07860   0.07987

  Beta  occ. eigenvalues --  -24.34920 -24.34907 -24.34499 -24.34471 -24.34467
  Beta  occ. eigenvalues --  -24.34453 -24.34410 -24.34409 -24.34367 -24.34359
  Beta  occ. eigenvalues --  -24.34158 -24.34142 -24.33959 -24.33939 -14.06019
  Beta  occ. eigenvalues --  -14.05996 -14.05989 -14.05958 -14.05933 -14.05928
  Beta  occ. eigenvalues --  -14.05926 -14.05880 -14.05853 -14.05820 -14.05665
  Beta  occ. eigenvalues --  -14.05634 -14.05277 -14.05276 -10.04672 -10.04653
  Beta  occ. eigenvalues --  -10.04622 -10.04609 -10.04593 -10.04582 -10.04539
  Beta  occ. eigenvalues --  -10.04534 -10.04474 -10.04473 -10.04272 -10.04262
  Beta  occ. eigenvalues --  -10.03972 -10.03962 -10.00425 -10.00407 -10.00391
  Beta  occ. eigenvalues --  -10.00368 -10.00356 -10.00338 -10.00333 -10.00317
  Beta  occ. eigenvalues --  -10.00263 -10.00250 -10.00033 -10.00029  -9.99804
  Beta  occ. eigenvalues --   -9.99797  -9.99270  -9.99256  -9.99254  -9.99237
  Beta  occ. eigenvalues --   -9.99213  -9.99197  -9.99163  -9.99132  -9.99079
  Beta  occ. eigenvalues --   -9.99034  -9.98954  -9.98912  -9.98826  -9.98793
  Beta  occ. eigenvalues --   -9.98787  -9.98778  -9.98763  -9.98722  -9.98719
  Beta  occ. eigenvalues --   -9.98692  -9.98604  -9.98592  -9.98480  -9.98472
  Beta  occ. eigenvalues --   -9.98440  -9.98437  -9.98179  -9.98151  -9.98059
  Beta  occ. eigenvalues --   -9.98038  -9.98036  -9.98021  -9.97991  -9.97983
  Beta  occ. eigenvalues --   -9.97896  -9.97882  -9.97781  -9.97759  -9.97463
  Beta  occ. eigenvalues --   -9.97453  -9.97028  -9.97023  -1.18470  -1.17930
  Beta  occ. eigenvalues --   -1.17930  -1.17901  -1.17897  -1.17872  -1.17840
  Beta  occ. eigenvalues --   -1.17836  -1.17781  -1.17776  -1.17577  -1.17565
  Beta  occ. eigenvalues --   -1.17342  -1.17327  -0.93390  -0.93276  -0.93173
  Beta  occ. eigenvalues --   -0.93106  -0.93052  -0.92684  -0.92665  -0.91799
  Beta  occ. eigenvalues --   -0.91648  -0.91572  -0.91425  -0.91341  -0.90999
  Beta  occ. eigenvalues --   -0.90983  -0.82540  -0.82379  -0.82171  -0.82009
  Beta  occ. eigenvalues --   -0.81872  -0.81783  -0.78690  -0.78682  -0.78622
  Beta  occ. eigenvalues --   -0.78486  -0.78413  -0.78202  -0.78141  -0.77924
  Beta  occ. eigenvalues --   -0.77561  -0.77526  -0.77310  -0.77181  -0.77053
  Beta  occ. eigenvalues --   -0.76781  -0.76738  -0.75078  -0.74601  -0.73934
  Beta  occ. eigenvalues --   -0.73225  -0.72470  -0.71692  -0.71211  -0.68531
  Beta  occ. eigenvalues --   -0.67789  -0.66874  -0.66125  -0.65368  -0.65170
  Beta  occ. eigenvalues --   -0.65025  -0.64760  -0.64710  -0.64338  -0.64029
  Beta  occ. eigenvalues --   -0.63753  -0.63437  -0.63115  -0.62972  -0.62638
  Beta  occ. eigenvalues --   -0.62393  -0.62151  -0.61916  -0.61599  -0.61413
  Beta  occ. eigenvalues --   -0.61289  -0.61193  -0.60830  -0.60388  -0.60072
  Beta  occ. eigenvalues --   -0.59832  -0.59777  -0.55876  -0.55558  -0.55424
  Beta  occ. eigenvalues --   -0.55340  -0.55251  -0.55239  -0.54408  -0.54299
  Beta  occ. eigenvalues --   -0.54236  -0.53995  -0.53743  -0.53638  -0.53527
  Beta  occ. eigenvalues --   -0.53286  -0.53213  -0.53019  -0.52790  -0.52594
  Beta  occ. eigenvalues --   -0.52403  -0.52044  -0.52015  -0.51656  -0.51548
  Beta  occ. eigenvalues --   -0.51470  -0.51234  -0.51111  -0.50975  -0.50835
  Beta  occ. eigenvalues --   -0.50501  -0.50428  -0.50138  -0.49899  -0.49650
  Beta  occ. eigenvalues --   -0.49592  -0.49453  -0.49210  -0.48975  -0.48630
  Beta  occ. eigenvalues --   -0.48231  -0.47759  -0.47200  -0.46862  -0.46782
  Beta  occ. eigenvalues --   -0.46706  -0.46656  -0.46612  -0.46583  -0.46379
  Beta  occ. eigenvalues --   -0.46274  -0.46268  -0.46103  -0.46041  -0.45990
  Beta  occ. eigenvalues --   -0.45955  -0.45670  -0.45598  -0.45584  -0.45145
  Beta  occ. eigenvalues --   -0.44615  -0.44198  -0.43908  -0.43690  -0.43345
  Beta  occ. eigenvalues --   -0.43204  -0.42891  -0.42699  -0.42551  -0.42436
  Beta  occ. eigenvalues --   -0.42332  -0.42199  -0.42074  -0.41780  -0.41655
  Beta  occ. eigenvalues --   -0.41560  -0.41482  -0.41419  -0.41381  -0.41351
  Beta  occ. eigenvalues --   -0.41176  -0.41137  -0.41059  -0.40995  -0.40926
  Beta  occ. eigenvalues --   -0.40749  -0.40663  -0.40604  -0.40515  -0.40382
  Beta  occ. eigenvalues --   -0.40322  -0.40264  -0.40229  -0.40025  -0.39995
  Beta  occ. eigenvalues --   -0.39976  -0.39748  -0.39666  -0.39424  -0.39057
  Beta  occ. eigenvalues --   -0.39019  -0.38593  -0.38492  -0.38310  -0.38160
  Beta  occ. eigenvalues --   -0.38029  -0.37993  -0.37759  -0.37671  -0.37553
  Beta  occ. eigenvalues --   -0.37411  -0.37278  -0.37221  -0.37047  -0.36987
  Beta  occ. eigenvalues --   -0.35051  -0.34688  -0.34291  -0.33789  -0.33337
  Beta  occ. eigenvalues --   -0.32971  -0.31292  -0.31288  -0.30729  -0.30605
  Beta  occ. eigenvalues --   -0.30576  -0.30451  -0.30303  -0.30241  -0.29502
  Beta  occ. eigenvalues --   -0.29482  -0.29410  -0.29283  -0.29240  -0.28905
  Beta  occ. eigenvalues --   -0.28879  -0.28272  -0.28123  -0.27970  -0.27840
  Beta  occ. eigenvalues --   -0.27592  -0.27510  -0.27424  -0.27241  -0.27178
  Beta  occ. eigenvalues --   -0.26985  -0.26714  -0.26591  -0.26465  -0.26335
  Beta  occ. eigenvalues --   -0.26179  -0.26094  -0.25990  -0.25818  -0.25600
  Beta  occ. eigenvalues --   -0.25205  -0.24949
  Beta virt. eigenvalues --   -0.08081  -0.07578  -0.06949  -0.06081  -0.05262
  Beta virt. eigenvalues --   -0.04426  -0.03878  -0.03315  -0.03252  -0.03177
  Beta virt. eigenvalues --   -0.03113  -0.02859  -0.02689  -0.02611  -0.02454

 Mulliken charges and spin densities:
               1          2
     1  C   -0.006716  -0.000000
     2  C    0.061222   0.000000
     3  C    0.127508  -0.000000
     4  F   -0.105075   0.000000
     5  C    0.027489   0.000000
     6  N   -0.178184  -0.000000
     7  C    0.080233   0.000000
     8  C    0.034410  -0.000000
     9  N   -0.174872  -0.000000
    10  C    0.077047   0.000000
    11  C   -0.026064  -0.000000
    12  C    0.058816   0.000000
    13  C    0.134509   0.000000
    14  F   -0.102260   0.000000
    15  C   -0.025040  -0.000000
    16  C    0.059402   0.000000
    17  C    0.134968   0.000000
    18  F   -0.101792  -0.000000
    19  C    0.031686  -0.000000
    20  N   -0.176845   0.000000
    21  C    0.077942   0.000000
    22  C    0.032138  -0.000000
    23  N   -0.176422   0.000000
    24  C    0.077960  -0.000000
    25  C   -0.025329   0.000000
    26  C    0.059116  -0.000000
    27  C    0.135308   0.000000
    28  F   -0.101295  -0.000000
    29  C   -0.025282   0.000000
    30  C    0.059280   0.000000
    31  C    0.134746  -0.000000
    32  F   -0.101311   0.000000
    33  C    0.031343   0.000000
    34  N   -0.176071   0.000000
    35  C    0.078080  -0.000000
    36  C    0.031958  -0.000000
    37  N   -0.175595  -0.000000
    38  C    0.077882   0.000000
    39  C   -0.026400  -0.000000
    40  C    0.059292   0.000000
    41  C    0.135388  -0.000000
    42  F   -0.100805   0.000000
    43  C   -0.023605   0.000000
    44  C    0.059265   0.000000
    45  C    0.134656  -0.000000
    46  F   -0.100987   0.000000
    47  C    0.031514   0.000000
    48  N   -0.175870   0.000000
    49  C    0.078318  -0.000000
    50  C    0.031794  -0.000000
    51  N   -0.175386  -0.000000
    52  C    0.077813   0.000000
    53  C   -0.026200   0.000000
    54  C    0.059844   0.000000
    55  C    0.135213   0.000000
    56  F   -0.101036  -0.000000
    57  C   -0.026535  -0.000000
    58  C    0.064282   0.000000
    59  C    0.126315  -0.000000
    60  F   -0.113213  -0.000000
    61  C    0.030777   0.000000
    62  N   -0.162388  -0.000000
    63  C    0.080662   0.000000
    64  C    0.030672  -0.000000
    65  N   -0.162437   0.000000
    66  C    0.080926  -0.000000
    67  C   -0.027396   0.000000
    68  C    0.063426  -0.000000
    69  C    0.126179   0.000000
    70  F   -0.113500  -0.000000
    71  C   -0.024352  -0.000000
    72  C    0.058683   0.000000
    73  C    0.135137  -0.000000
    74  F   -0.101264   0.000000
    75  C    0.031985   0.000000
    76  N   -0.175974  -0.000000
    77  C    0.078228   0.000000
    78  C    0.031606  -0.000000
    79  N   -0.176358   0.000000
    80  C    0.078349  -0.000000
    81  C   -0.024105   0.000000
    82  C    0.058509  -0.000000
    83  C    0.134659  -0.000000
    84  F   -0.102172   0.000000
    85  C   -0.025125  -0.000000
    86  C    0.057818  -0.000000
    87  C    0.134511   0.000000
    88  F   -0.102006  -0.000000
    89  C    0.034347   0.000000
    90  N   -0.174723  -0.000000
    91  C    0.077320   0.000000
    92  C    0.027390  -0.000000
    93  N   -0.177812   0.000000
    94  C    0.080358  -0.000000
    95  C   -0.006733   0.000000
    96  C    0.061229  -0.000000
    97  C    0.127272   0.000000
    98  F   -0.105613  -0.000000
    99  H   -0.006678  -0.000000
   100  H    0.003427   0.000000
   101  H    0.004336   0.000000
   102  H    0.002478  -0.000000
   103  H   -0.006826  -0.000000
   104  H   -0.005945   0.000000
   105  H    0.003271  -0.000000
   106  H    0.003244  -0.000000
   107  H   -0.006054   0.000000
   108  H   -0.005750  -0.000000
   109  H    0.003489  -0.000000
   110  H    0.001483  -0.000000
   111  H   -0.003632  -0.000000
   112  H   -0.003792   0.000000
   113  H    0.000886   0.000000
   114  H    0.001081  -0.000000
   115  H   -0.002641   0.000000
   116  H   -0.002415   0.000000
   117  H    0.001804   0.000000
   118  H    0.002597  -0.000000
   119  H   -0.002530  -0.000000
   120  H   -0.003112  -0.000000
   121  H    0.000615   0.000000
   122  H    0.001440  -0.000000
   123  H   -0.004140  -0.000000
   124  H   -0.004870  -0.000000
   125  H    0.000397  -0.000000
   126  H    0.004531  -0.000000
   127  H   -0.006644   0.000000
   128  H    0.003313   0.000000
 Sum of Mulliken charges =  -0.00000   0.00000

 Dipole moment (field-independent basis, Debye):
    X=              0.1192    Y=              0.7601    Z=             -0.4491  Tot=              0.8909
 Quadrupole moment (field-independent basis, Debye-Ang):
   XX=           -325.9871   YY=           -539.7448   ZZ=           -541.1375
   XY=              7.2324   XZ=            -15.6199   YZ=              0.4483

 Normal termination of Gaussian 16 at Sat Jul 25 01:42:42 2020.
