 Gaussian 16, Revision A.03,
 Gaussian 16:  EM64L-G16RevA.03 25-Dec-2016

 ---------------------------------------------------------------
 #P uLC-wPBE/cc-pVDZ iop(3/107=0365400000, 3/108=0365400000) opt
 ---------------------------------------------------------------

 --------------
 H17 C50 S5 F15
 --------------
 Symbolic Z-matrix:
 Charge =  0 Multiplicity = 1

 SCF Done:  E(ULC-wPBE) =  -5401.21078556     A.U. after   18 cycles
 SCF Done:  E(ULC-wPBE) =  -5401.28296242     A.U. after   14 cycles
 SCF Done:  E(ULC-wPBE) =  -5401.33013845     A.U. after   15 cycles
 SCF Done:  E(ULC-wPBE) =  -5401.34450063     A.U. after   14 cycles
 SCF Done:  E(ULC-wPBE) =  -5401.34813954     A.U. after   14 cycles
 SCF Done:  E(ULC-wPBE) =  -5401.34906052     A.U. after   15 cycles
 SCF Done:  E(ULC-wPBE) =  -5401.34943912     A.U. after   14 cycles
 SCF Done:  E(ULC-wPBE) =  -5401.34955266     A.U. after   12 cycles
 SCF Done:  E(ULC-wPBE) =  -5401.34957038     A.U. after   12 cycles
 SCF Done:  E(ULC-wPBE) =  -5401.34958426     A.U. after   11 cycles
 SCF Done:  E(ULC-wPBE) =  -5401.34958651     A.U. after   10 cycles
 SCF Done:  E(ULC-wPBE) =  -5401.34958707     A.U. after    8 cycles
 SCF Done:  E(ULC-wPBE) =  -5401.34958725     A.U. after    7 cycles
 SCF Done:  E(ULC-wPBE) =  -5401.34958740     A.U. after    7 cycles
 SCF Done:  E(ULC-wPBE) =  -5401.34958751     A.U. after    6 cycles
 Optimization completed.
    -- Stationary point found.

                         Standard orientation:
 ---------------------------------------------------------------------
 Center     Atomic      Atomic             Coordinates (Angstroms)
 Number     Number       Type             X           Y           Z
 ---------------------------------------------------------------------
      1          6           0      -19.538806    0.476562    0.390830
      2          6           0      -18.644940    0.920783    1.357848
      3          6           0      -17.309234    0.582838    1.231323
      4          9           0      -16.445048    1.011802    2.163299
      5          6           0      -16.812258   -0.183837    0.176311
      6          6           0      -17.750292   -0.594373   -0.773153
      7          9           0      -17.324498   -1.310019   -1.820357
      8          6           0      -19.096927   -0.284885   -0.683769
      9          6           0      -15.393110   -0.546045    0.060030
     10          6           0      -14.867401   -1.780217   -0.197978
     11          9           0      -15.616443   -2.876486   -0.334678
     12          6           0      -13.454969   -1.825535   -0.288198
     13          6           0      -12.900464   -0.591101   -0.089352
     14         16           0      -14.110986    0.603764    0.196300
     15          6           0      -11.471197   -0.235602   -0.095217
     16          6           0      -10.984743    0.801979    0.701986
     17          6           0       -9.635843    1.105335    0.677019
     18          9           0       -9.192235    2.086166    1.469636
     19          6           0       -8.712833    0.424299   -0.118666
     20          6           0       -9.241051   -0.609953   -0.892773
     21          9           0       -8.403867   -1.305537   -1.675394
     22          6           0      -10.580389   -0.947699   -0.901723
     23          6           0       -7.289818    0.784067   -0.132892
     24          6           0       -6.748463    2.034005   -0.241777
     25          9           0       -7.485195    3.134311   -0.406835
     26          6           0       -5.334349    2.083056   -0.192966
     27          6           0       -4.794446    0.834793   -0.047046
     28         16           0       -6.020053   -0.375731    0.036055
     29          6           0       -3.368240    0.475856    0.033291
     30          6           0       -2.906007   -0.748539   -0.452275
     31          6           0       -1.559108   -1.050251   -0.367390
     32          9           0       -1.139088   -2.217981   -0.864139
     33          6           0       -0.615169   -0.186907    0.191643
     34          6           0       -1.119933    1.028284    0.656982
     35          9           0       -0.262193    1.903092    1.200935
     36          6           0       -2.456239    1.372466    0.594712
     37          6           0        0.805300   -0.546042    0.280061
     38          6           0        1.340492   -1.723542    0.720959
     39          9           0        0.600011   -2.726544    1.196712
     40          6           0        2.753049   -1.800757    0.663416
     41          6           0        3.298098   -0.647793    0.168959
     42         16           0        2.079141    0.506949   -0.224660
     43          6           0        4.724711   -0.341166   -0.031722
     44          6           0        5.619581   -1.367410   -0.342761
     45          6           0        6.956488   -1.068536   -0.520669
     46          9           0        7.797525   -2.068392   -0.820117
     47          6           0        7.478002    0.221701   -0.414306
     48          6           0        6.550847    1.215544   -0.095570
     49          9           0        6.987848    2.469675    0.055843
     50          6           0        5.204098    0.963923    0.092468
     51          6           0        8.898424    0.527258   -0.622911
     52          6           0        9.430907    1.534066   -1.377895
     53          9           0        8.686072    2.377240   -2.095870
     54          6           0       10.844760    1.609144   -1.368948
     55          6           0       11.393624    0.629307   -0.588263
     56         16           0       10.176774   -0.361410    0.127280
     57          6           0       12.822380    0.374756   -0.335575
     58          6           0       13.727175    1.438479   -0.326833
     59          6           0       15.065906    1.186346   -0.095829
     60          9           0       15.915618    2.222894   -0.089512
     61          6           0       15.579870   -0.089318    0.140485
     62          6           0       14.642611   -1.123349    0.116483
     63          9           0       15.070385   -2.376111    0.302759
     64          6           0       13.293565   -0.919696   -0.110909
     65          6           0       17.002796   -0.340694    0.402319
     66          6           0       17.539014   -1.099486    1.404102
     67          9           0       16.796889   -1.702509    2.336551
     68          6           0       18.955241   -1.190474    1.396676
     69          6           0       19.480182   -0.479369    0.360754
     70         16           0       18.276365    0.288787   -0.583615
     71          1           0      -20.597391    0.730951    0.474937
     72          1           0      -18.961445    1.520671    2.211780
     73          1           0      -19.773740   -0.640932   -1.461260
     74          1           0      -12.894319   -2.743986   -0.457242
     75          1           0      -11.634614    1.368858    1.370453
     76          1           0      -10.915715   -1.747756   -1.562128
     77          1           0       -4.762544    3.004033   -0.299073
     78          1           0       -3.573337   -1.470390   -0.925735
     79          1           0       -2.772113    2.328732    1.012384
     80          1           0        3.320937   -2.663096    1.010231
     81          1           0        5.289385   -2.397720   -0.477403
     82          1           0        4.550901    1.795117    0.362643
     83          1           0       11.410390    2.338119   -1.947768
     84          1           0       13.404004    2.469989   -0.469380
     85          1           0       12.631872   -1.786956   -0.135895
     86          1           0       19.529256   -1.753254    2.131379
     87          1           0       20.531231   -0.358143    0.103070
 ---------------------------------------------------------------------

 The electronic state is 1-A.
 Alpha  occ. eigenvalues --  -88.32189 -88.32177 -88.32022 -88.32017 -88.31356
 Alpha  occ. eigenvalues --  -24.50475 -24.50437 -24.50395 -24.50136 -24.50095
 Alpha  occ. eigenvalues --  -24.50059 -24.50031 -24.50023 -24.49779 -24.49777
 Alpha  occ. eigenvalues --  -24.49716 -24.49714 -24.49661 -24.49587 -24.49093
 Alpha  occ. eigenvalues --  -10.21432 -10.21384 -10.21371 -10.21356 -10.21321
 Alpha  occ. eigenvalues --  -10.21294 -10.21004 -10.20944 -10.20887 -10.20831
 Alpha  occ. eigenvalues --  -10.20132 -10.20130 -10.20000 -10.19921 -10.19337
 Alpha  occ. eigenvalues --  -10.16377 -10.16362 -10.16209 -10.16202 -10.15778
 Alpha  occ. eigenvalues --  -10.15716 -10.15707 -10.15655 -10.15649 -10.15499
 Alpha  occ. eigenvalues --  -10.15444 -10.15422 -10.14954 -10.14902 -10.14875
 Alpha  occ. eigenvalues --  -10.14797 -10.14621 -10.14540 -10.14497 -10.13588
 Alpha  occ. eigenvalues --  -10.12941 -10.12890 -10.12882 -10.12874 -10.12831
 Alpha  occ. eigenvalues --  -10.12817 -10.12802 -10.12779 -10.12663 -10.12608
 Alpha  occ. eigenvalues --  -10.12599 -10.12551 -10.12363 -10.12308 -10.11948
 Alpha  occ. eigenvalues --   -7.92861  -7.92849  -7.92694  -7.92690  -7.92041
 Alpha  occ. eigenvalues --   -5.94525  -5.94513  -5.94358  -5.94353  -5.94001
 Alpha  occ. eigenvalues --   -5.93989  -5.93834  -5.93829  -5.93697  -5.93548
 Alpha  occ. eigenvalues --   -5.93536  -5.93381  -5.93378  -5.93169  -5.92744
 Alpha  occ. eigenvalues --   -1.35203  -1.35160  -1.35124  -1.35053  -1.35015
 Alpha  occ. eigenvalues --   -1.34972  -1.34763  -1.34727  -1.34625  -1.34597
 Alpha  occ. eigenvalues --   -1.34311  -1.34303  -1.34192  -1.34060  -1.33616
 Alpha  occ. eigenvalues --   -1.06051  -1.05857  -1.05638  -1.05516  -1.04405
 Alpha  occ. eigenvalues --   -1.03435  -1.02985  -1.02492  -1.02012  -1.01852
 Alpha  occ. eigenvalues --   -0.96566  -0.95779  -0.94782  -0.93695  -0.92814
 Alpha  occ. eigenvalues --   -0.90633  -0.90580  -0.90539  -0.90297  -0.89843
 Alpha  occ. eigenvalues --   -0.89739  -0.88988  -0.88830  -0.88560  -0.88378
 Alpha  occ. eigenvalues --   -0.87970  -0.87629  -0.86667  -0.85253  -0.84115
 Alpha  occ. eigenvalues --   -0.80623  -0.79373  -0.78211  -0.77897  -0.77573
 Alpha  occ. eigenvalues --   -0.77189  -0.76969  -0.76804  -0.76570  -0.76142
 Alpha  occ. eigenvalues --   -0.72328  -0.72178  -0.72068  -0.72003  -0.71826
 Alpha  occ. eigenvalues --   -0.71342  -0.71223  -0.71064  -0.71001  -0.70410
 Alpha  occ. eigenvalues --   -0.69394  -0.69295  -0.68928  -0.68314  -0.67471
 Alpha  occ. eigenvalues --   -0.67140  -0.66503  -0.66340  -0.66194  -0.65828
 Alpha  occ. eigenvalues --   -0.65619  -0.65510  -0.65283  -0.65105  -0.65065
 Alpha  occ. eigenvalues --   -0.62751  -0.62695  -0.62645  -0.62423  -0.61767
 Alpha  occ. eigenvalues --   -0.61651  -0.61635  -0.61569  -0.61434  -0.61293
 Alpha  occ. eigenvalues --   -0.61249  -0.61125  -0.60912  -0.60585  -0.60397
 Alpha  occ. eigenvalues --   -0.59914  -0.59867  -0.59777  -0.59634  -0.59324
 Alpha  occ. eigenvalues --   -0.59295  -0.59221  -0.59137  -0.58917  -0.58770
 Alpha  occ. eigenvalues --   -0.58043  -0.57963  -0.57836  -0.57753  -0.57673
 Alpha  occ. eigenvalues --   -0.56902  -0.56830  -0.56746  -0.56718  -0.56485
 Alpha  occ. eigenvalues --   -0.56196  -0.55808  -0.55426  -0.54926  -0.54454
 Alpha  occ. eigenvalues --   -0.53718  -0.52982  -0.52807  -0.52694  -0.52543
 Alpha  occ. eigenvalues --   -0.52053  -0.51933  -0.51792  -0.51690  -0.51520
 Alpha  occ. eigenvalues --   -0.50962  -0.50552  -0.50407  -0.50317  -0.50170
 Alpha  occ. eigenvalues --   -0.50013  -0.49874  -0.49699  -0.49643  -0.49517
 Alpha  occ. eigenvalues --   -0.49166  -0.48998  -0.48899  -0.48691  -0.48451
 Alpha  occ. eigenvalues --   -0.48330  -0.48176  -0.47961  -0.47863  -0.47732
 Alpha  occ. eigenvalues --   -0.47660  -0.46719  -0.46615  -0.46468  -0.46373
 Alpha  occ. eigenvalues --   -0.46078  -0.42130  -0.41374  -0.40376  -0.39204
 Alpha  occ. eigenvalues --   -0.38055  -0.36656  -0.36602  -0.36521  -0.36497
 Alpha  occ. eigenvalues --   -0.36335  -0.36268  -0.36191  -0.36126  -0.35930
 Alpha  occ. eigenvalues --   -0.35701  -0.34890  -0.33895  -0.32543  -0.31317
 Alpha  occ. eigenvalues --   -0.30540
 Alpha virt. eigenvalues --   -0.01644  -0.00578   0.00826   0.02343   0.04590
 Alpha virt. eigenvalues --    0.05532   0.05746   0.05866   0.05997   0.06224
 Alpha virt. eigenvalues --    0.06652   0.07194   0.08319   0.09228   0.09817

  Beta  occ. eigenvalues --  -88.32189 -88.32177 -88.32022 -88.32017 -88.31356
  Beta  occ. eigenvalues --  -24.50475 -24.50437 -24.50395 -24.50136 -24.50095
  Beta  occ. eigenvalues --  -24.50059 -24.50031 -24.50023 -24.49779 -24.49777
  Beta  occ. eigenvalues --  -24.49716 -24.49714 -24.49661 -24.49587 -24.49093
  Beta  occ. eigenvalues --  -10.21432 -10.21384 -10.21371 -10.21356 -10.21321
  Beta  occ. eigenvalues --  -10.21294 -10.21004 -10.20944 -10.20887 -10.20831
  Beta  occ. eigenvalues --  -10.20132 -10.20130 -10.20000 -10.19921 -10.19337
  Beta  occ. eigenvalues --  -10.16377 -10.16362 -10.16209 -10.16202 -10.15778
  Beta  occ. eigenvalues --  -10.15716 -10.15707 -10.15655 -10.15649 -10.15499
  Beta  occ. eigenvalues --  -10.15444 -10.15422 -10.14954 -10.14902 -10.14875
  Beta  occ. eigenvalues --  -10.14797 -10.14621 -10.14540 -10.14497 -10.13588
  Beta  occ. eigenvalues --  -10.12941 -10.12890 -10.12882 -10.12874 -10.12831
  Beta  occ. eigenvalues --  -10.12817 -10.12802 -10.12779 -10.12663 -10.12608
  Beta  occ. eigenvalues --  -10.12599 -10.12551 -10.12363 -10.12308 -10.11948
  Beta  occ. eigenvalues --   -7.92861  -7.92849  -7.92694  -7.92690  -7.92041
  Beta  occ. eigenvalues --   -5.94525  -5.94513  -5.94358  -5.94353  -5.94001
  Beta  occ. eigenvalues --   -5.93989  -5.93834  -5.93829  -5.93697  -5.93548
  Beta  occ. eigenvalues --   -5.93536  -5.93381  -5.93378  -5.93169  -5.92744
  Beta  occ. eigenvalues --   -1.35203  -1.35160  -1.35124  -1.35053  -1.35015
  Beta  occ. eigenvalues --   -1.34972  -1.34763  -1.34727  -1.34625  -1.34597
  Beta  occ. eigenvalues --   -1.34311  -1.34303  -1.34192  -1.34060  -1.33616
  Beta  occ. eigenvalues --   -1.06051  -1.05857  -1.05638  -1.05516  -1.04405
  Beta  occ. eigenvalues --   -1.03435  -1.02985  -1.02492  -1.02012  -1.01852
  Beta  occ. eigenvalues --   -0.96566  -0.95779  -0.94782  -0.93695  -0.92814
  Beta  occ. eigenvalues --   -0.90633  -0.90580  -0.90539  -0.90297  -0.89843
  Beta  occ. eigenvalues --   -0.89739  -0.88988  -0.88830  -0.88560  -0.88378
  Beta  occ. eigenvalues --   -0.87970  -0.87629  -0.86667  -0.85253  -0.84115
  Beta  occ. eigenvalues --   -0.80623  -0.79373  -0.78211  -0.77897  -0.77573
  Beta  occ. eigenvalues --   -0.77189  -0.76969  -0.76804  -0.76570  -0.76142
  Beta  occ. eigenvalues --   -0.72328  -0.72178  -0.72068  -0.72003  -0.71826
  Beta  occ. eigenvalues --   -0.71342  -0.71223  -0.71064  -0.71001  -0.70410
  Beta  occ. eigenvalues --   -0.69394  -0.69295  -0.68928  -0.68314  -0.67471
  Beta  occ. eigenvalues --   -0.67140  -0.66503  -0.66340  -0.66194  -0.65828
  Beta  occ. eigenvalues --   -0.65619  -0.65510  -0.65283  -0.65105  -0.65065
  Beta  occ. eigenvalues --   -0.62751  -0.62695  -0.62645  -0.62423  -0.61767
  Beta  occ. eigenvalues --   -0.61651  -0.61635  -0.61569  -0.61434  -0.61293
  Beta  occ. eigenvalues --   -0.61249  -0.61125  -0.60912  -0.60585  -0.60397
  Beta  occ. eigenvalues --   -0.59914  -0.59867  -0.59777  -0.59634  -0.59324
  Beta  occ. eigenvalues --   -0.59295  -0.59221  -0.59137  -0.58917  -0.58770
  Beta  occ. eigenvalues --   -0.58043  -0.57963  -0.57836  -0.57753  -0.57673
  Beta  occ. eigenvalues --   -0.56902  -0.56830  -0.56746  -0.56718  -0.56485
  Beta  occ. eigenvalues --   -0.56196  -0.55808  -0.55426  -0.54926  -0.54454
  Beta  occ. eigenvalues --   -0.53718  -0.52982  -0.52807  -0.52694  -0.52543
  Beta  occ. eigenvalues --   -0.52053  -0.51933  -0.51792  -0.51690  -0.51520
  Beta  occ. eigenvalues --   -0.50962  -0.50552  -0.50407  -0.50317  -0.50170
  Beta  occ. eigenvalues --   -0.50013  -0.49874  -0.49699  -0.49643  -0.49517
  Beta  occ. eigenvalues --   -0.49166  -0.48998  -0.48899  -0.48691  -0.48451
  Beta  occ. eigenvalues --   -0.48330  -0.48176  -0.47961  -0.47863  -0.47732
  Beta  occ. eigenvalues --   -0.47660  -0.46719  -0.46615  -0.46468  -0.46373
  Beta  occ. eigenvalues --   -0.46078  -0.42130  -0.41374  -0.40376  -0.39204
  Beta  occ. eigenvalues --   -0.38055  -0.36656  -0.36602  -0.36521  -0.36497
  Beta  occ. eigenvalues --   -0.36335  -0.36268  -0.36191  -0.36126  -0.35930
  Beta  occ. eigenvalues --   -0.35701  -0.34890  -0.33895  -0.32543  -0.31317
  Beta  occ. eigenvalues --   -0.30540
  Beta virt. eigenvalues --   -0.01644  -0.00578   0.00826   0.02343   0.04590
  Beta virt. eigenvalues --    0.05532   0.05746   0.05866   0.05997   0.06224
  Beta virt. eigenvalues --    0.06652   0.07194   0.08319   0.09228   0.09817

 Mulliken charges and spin densities:
               1          2
     1  C    0.031131   0.000000
     2  C   -0.006259  -0.000000
     3  C    0.123121   0.000000
     4  F   -0.117303  -0.000000
     5  C   -0.085824  -0.000000
     6  C    0.122436   0.000000
     7  F   -0.112738  -0.000000
     8  C   -0.007175  -0.000000
     9  C   -0.182760  -0.000000
    10  C    0.158070   0.000000
    11  F   -0.112036  -0.000000
    12  C    0.015618   0.000000
    13  C   -0.152696  -0.000000
    14  S    0.210369  -0.000000
    15  C    0.065412  -0.000000
    16  C   -0.011162   0.000000
    17  C    0.128508   0.000000
    18  F   -0.108863  -0.000000
    19  C   -0.078880  -0.000000
    20  C    0.133666   0.000000
    21  F   -0.114222   0.000000
    22  C   -0.012577   0.000000
    23  C   -0.186140   0.000000
    24  C    0.156294   0.000000
    25  F   -0.110952  -0.000000
    26  C    0.017103   0.000000
    27  C   -0.152166   0.000000
    28  S    0.210909  -0.000000
    29  C    0.064717  -0.000000
    30  C   -0.011003  -0.000000
    31  C    0.128552   0.000000
    32  F   -0.108574  -0.000000
    33  C   -0.078355  -0.000000
    34  C    0.133716  -0.000000
    35  F   -0.113895  -0.000000
    36  C   -0.012331  -0.000000
    37  C   -0.186411  -0.000000
    38  C    0.156168   0.000000
    39  F   -0.110958  -0.000000
    40  C    0.017283  -0.000000
    41  C   -0.151977  -0.000000
    42  S    0.210937  -0.000000
    43  C    0.064209   0.000000
    44  C   -0.012349   0.000000
    45  C    0.133679  -0.000000
    46  F   -0.113773   0.000000
    47  C   -0.078049   0.000000
    48  C    0.128555  -0.000000
    49  F   -0.108580   0.000000
    50  C   -0.011000   0.000000
    51  C   -0.186865   0.000000
    52  C    0.155873  -0.000000
    53  F   -0.111504   0.000000
    54  C    0.017153  -0.000000
    55  C   -0.151103   0.000000
    56  S    0.210541   0.000000
    57  C    0.063147  -0.000000
    58  C   -0.014158   0.000000
    59  C    0.134820  -0.000000
    60  F   -0.113923   0.000000
    61  C   -0.072382   0.000000
    62  C    0.129531   0.000000
    63  F   -0.109170  -0.000000
    64  C   -0.012472  -0.000000
    65  C   -0.193754  -0.000000
    66  C    0.138538  -0.000000
    67  F   -0.115929   0.000000
    68  C    0.033581   0.000000
    69  C   -0.131658   0.000000
    70  S    0.195729   0.000000
    71  H    0.020342   0.000000
    72  H    0.021790  -0.000000
    73  H    0.022304  -0.000000
    74  H    0.020207   0.000000
    75  H    0.023981   0.000000
    76  H    0.015599   0.000000
    77  H    0.020956   0.000000
    78  H    0.023913  -0.000000
    79  H    0.015791  -0.000000
    80  H    0.021051  -0.000000
    81  H    0.015604   0.000000
    82  H    0.023678   0.000000
    83  H    0.020590  -0.000000
    84  H    0.014532   0.000000
    85  H    0.022587   0.000000
    86  H    0.022057  -0.000000
    87  H    0.047576  -0.000000
 Sum of Mulliken charges =  -0.00000  -0.00000

 Dipole moment (field-independent basis, Debye):
    X=             -2.2906    Y=              0.5059    Z=             -0.1659  Tot=              2.3517
 Quadrupole moment (field-independent basis, Debye-Ang):
   XX=           -291.7100   YY=           -416.1040   ZZ=           -422.5550
   XY=             -9.0298   XZ=             -8.4892   YZ=             -0.2539

 Normal termination of Gaussian 16 at Fri Jul 24 15:25:15 2020.
