 Gaussian 16, Revision A.03,
 Gaussian 16:  EM64L-G16RevA.03 25-Dec-2016

 ---------------------------------------------------------------
 #P uLC-wPBE/cc-pVDZ iop(3/107=0392200000, 3/108=0392200000) opt
 ---------------------------------------------------------------

 --------------
 H30 C70 S7 F14
 --------------
 Symbolic Z-matrix:
 Charge =  0 Multiplicity = 1

 SCF Done:  E(ULC-wPBE) =  -6866.98086549     A.U. after   17 cycles
 SCF Done:  E(ULC-wPBE) =  -6867.07288952     A.U. after   13 cycles
 SCF Done:  E(ULC-wPBE) =  -6867.16390822     A.U. after   14 cycles
 SCF Done:  E(ULC-wPBE) =  -6867.18990984     A.U. after   14 cycles
 SCF Done:  E(ULC-wPBE) =  -6867.19712253     A.U. after   14 cycles
 SCF Done:  E(ULC-wPBE) =  -6867.19988895     A.U. after   13 cycles
 SCF Done:  E(ULC-wPBE) =  -6867.20204480     A.U. after   14 cycles
 SCF Done:  E(ULC-wPBE) =  -6867.20298211     A.U. after   13 cycles
 SCF Done:  E(ULC-wPBE) =  -6867.20361512     A.U. after   13 cycles
 SCF Done:  E(ULC-wPBE) =  -6867.20381314     A.U. after   12 cycles
 SCF Done:  E(ULC-wPBE) =  -6867.20398568     A.U. after   10 cycles
 SCF Done:  E(ULC-wPBE) =  -6867.20398651     A.U. after   10 cycles
 SCF Done:  E(ULC-wPBE) =  -6867.20398691     A.U. after    7 cycles
 SCF Done:  E(ULC-wPBE) =  -6867.20398710     A.U. after    8 cycles
 SCF Done:  E(ULC-wPBE) =  -6867.20398730     A.U. after    7 cycles
 SCF Done:  E(ULC-wPBE) =  -6867.20398738     A.U. after    7 cycles
 SCF Done:  E(ULC-wPBE) =  -6867.20398741     A.U. after    7 cycles
 SCF Done:  E(ULC-wPBE) =  -6867.20398753     A.U. after    6 cycles
 SCF Done:  E(ULC-wPBE) =  -6867.20398762     A.U. after    5 cycles
 SCF Done:  E(ULC-wPBE) =  -6867.20398763     A.U. after    6 cycles
 Optimization completed on the basis of negligible forces.
    -- Stationary point found.

                         Standard orientation:
 ---------------------------------------------------------------------
 Center     Atomic      Atomic             Coordinates (Angstroms)
 Number     Number       Type             X           Y           Z
 ---------------------------------------------------------------------
      1          6           0       23.985016    7.241527   -0.756849
      2          6           0       24.691996    6.047103   -0.686156
      3          6           0       24.028390    4.854184   -0.442843
      4          6           0       22.640190    4.813054   -0.258541
      5          6           0       21.968926    6.032356   -0.343361
      6          9           0       20.631477    6.053711   -0.189527
      7          6           0       22.608780    7.232942   -0.586142
      8          6           0       21.940857    3.547161    0.012226
      9          6           0       22.472497    2.378747    0.486554
     10          9           0       23.762441    2.231285    0.820248
     11          6           0       21.571708    1.296292    0.605322
     12          6           0       20.314311    1.648223    0.206182
     13         16           0       20.252147    3.297688   -0.282399
     14          6           0       19.106819    0.806146    0.185472
     15          6           0       18.089604    1.013773   -0.749259
     16          6           0       16.968473    0.200551   -0.760678
     17          6           0       16.814591   -0.846600    0.150192
     18          6           0       17.837812   -1.026610    1.079130
     19          9           0       17.720696   -1.991348    1.999199
     20          6           0       18.964467   -0.228954    1.109320
     21          6           0       15.624363   -1.706795    0.151842
     22          6           0       15.548624   -3.065888    0.232560
     23          9           0       16.620891   -3.853878    0.318559
     24          6           0       14.237384   -3.599198    0.177376
     25          6           0       13.297670   -2.616989    0.046710
     26         16           0       14.030757   -1.055757    0.012219
     27          6           0       11.836398   -2.771244   -0.043904
     28          6           0       11.051424   -1.870031   -0.767041
     29          6           0        9.679726   -2.042453   -0.851205
     30          6           0        9.036879   -3.112066   -0.224662
     31          6           0        9.840459   -3.990935    0.499473
     32          9           0        9.268880   -5.009876    1.151630
     33          6           0       11.209507   -3.839448    0.597120
     34          6           0        7.581949   -3.296343   -0.299708
     35          6           0        6.873952   -4.432704   -0.558351
     36          9           0        7.447343   -5.611354   -0.803508
     37          6           0        5.467215   -4.270028   -0.591086
     38          6           0        5.102589   -2.975071   -0.355472
     39         16           0        6.484954   -1.980636   -0.079164
     40          6           0        3.743513   -2.413284   -0.307198
     41          6           0        3.482952   -1.089664   -0.667866
     42          6           0        2.197098   -0.578996   -0.623981
     43          6           0        1.105554   -1.359467   -0.222108
     44          6           0        1.398948   -2.678593    0.124495
     45          9           0        0.399241   -3.489178    0.515585
     46          6           0        2.672222   -3.208355    0.095327
     47          6           0       -0.256979   -0.812128   -0.168790
     48          6           0       -0.634529    0.504109   -0.161728
     49          9           0        0.232933    1.525992   -0.170496
     50          6           0       -2.026234    0.745326   -0.152174
     51          6           0       -2.734585   -0.422323   -0.155128
     52         16           0       -1.688417   -1.788960   -0.145905
     53          6           0       -4.196455   -0.589802   -0.144086
     54          6           0       -4.812237   -1.697321   -0.730882
     55          6           0       -6.189524   -1.835707   -0.719194
     56          6           0       -7.023061   -0.879059   -0.125998
     57          6           0       -6.377093    0.217831    0.444812
     58          9           0       -7.114629    1.179796    1.028437
     59          6           0       -5.006838    0.375137    0.451177
     60          6           0       -8.483834   -1.033753   -0.107596
     61          6           0       -9.210712   -2.175361   -0.315677
     62          9           0       -8.658808   -3.378397   -0.526351
     63          6           0      -10.614831   -2.024292   -0.287280
     64          6           0      -10.971987   -0.727291   -0.051136
     65         16           0       -9.588424    0.279204    0.133982
     66          6           0      -12.330475   -0.172868    0.058793
     67          6           0      -12.612048    0.927258    0.871604
     68          6           0      -13.897813    1.431105    0.967671
     69          6           0      -14.968048    0.865578    0.262698
     70          6           0      -14.654021   -0.235473   -0.534375
     71          9           0      -15.632549   -0.834207   -1.237076
     72          6           0      -13.380449   -0.752087   -0.651220
     73          6           0      -16.330147    1.407596    0.361256
     74          6           0      -16.714038    2.637718    0.824251
     75          9           0      -15.852856    3.576334    1.241537
     76          6           0      -18.105637    2.878790    0.850706
     77          6           0      -18.807471    1.798720    0.396876
     78         16           0      -17.754576    0.521410   -0.074349
     79          6           0      -20.266999    1.660438    0.269004
     80          6           0      -20.898857    0.420765    0.385863
     81          6           0      -22.274103    0.309285    0.271293
     82          6           0      -23.088601    1.423964    0.037552
     83          6           0      -22.427409    2.647622   -0.067388
     84          9           0      -23.146855    3.762796   -0.286527
     85          6           0      -21.058657    2.783685    0.037176
     86          6           0      -24.547642    1.299529   -0.092500
     87          6           0      -25.269561    0.170311   -0.372393
     88          9           0      -24.712617   -1.024137   -0.619286
     89          6           0      -26.676484    0.329859   -0.390476
     90          6           0      -27.016880    1.616418   -0.112654
     91         16           0      -25.653805    2.611474    0.150191
     92          1           0       24.502840    8.182494   -0.949101
     93          1           0       25.773937    6.040172   -0.825407
     94          1           0       24.593208    3.925116   -0.394876
     95          1           0       22.010079    8.142679   -0.635829
     96          1           0       21.869753    0.307821    0.949309
     97          1           0       18.186756    1.805935   -1.493384
     98          1           0       16.190769    0.363968   -1.509065
     99          1           0       19.709910   -0.412084    1.883166
    100          1           0       14.025026   -4.666468    0.198905
    101          1           0       11.521554   -1.036725   -1.291787
    102          1           0        9.082105   -1.340111   -1.435290
    103          1           0       11.769229   -4.550364    1.204908
    104          1           0        4.777465   -5.081338   -0.816016
    105          1           0        4.297127   -0.448296   -1.009580
    106          1           0        2.026906    0.454053   -0.919506
    107          1           0        2.809385   -4.241978    0.412695
    108          1           0       -2.457453    1.744273   -0.167371
    109          1           0       -4.206574   -2.458620   -1.225349
    110          1           0       -6.638763   -2.706442   -1.192212
    111          1           0       -4.589988    1.251591    0.947131
    112          1           0      -11.306221   -2.856233   -0.405424
    113          1           0      -11.816108    1.388534    1.458615
    114          1           0      -14.085313    2.283718    1.616864
    115          1           0      -13.225560   -1.597685   -1.321249
    116          1           0      -18.542523    3.806159    1.215646
    117          1           0      -20.308718   -0.474086    0.590650
    118          1           0      -22.737604   -0.669692    0.374854
    119          1           0      -20.627265    3.776836   -0.087374
    120          1           0      -27.371292   -0.479515   -0.604598
    121          1           0      -28.016876    2.042101   -0.062012
 ---------------------------------------------------------------------

 Alpha  occ. eigenvalues --   -0.49590  -0.49303  -0.49203  -0.48973  -0.48821
 Alpha  occ. eigenvalues --   -0.48601  -0.48475  -0.48022  -0.47883  -0.47741
 Alpha  occ. eigenvalues --   -0.47694  -0.47619  -0.47423  -0.47146  -0.46752
 Alpha  occ. eigenvalues --   -0.46407  -0.45930  -0.45861  -0.45739  -0.45617
 Alpha  occ. eigenvalues --   -0.45395  -0.43925  -0.42950  -0.42362  -0.41446
 Alpha  occ. eigenvalues --   -0.40534  -0.39387  -0.38268  -0.37300  -0.37201
 Alpha  occ. eigenvalues --   -0.37128  -0.37123  -0.37011  -0.36972  -0.36612
 Alpha  occ. eigenvalues --   -0.36564  -0.36508  -0.36479  -0.36441  -0.36304
 Alpha  occ. eigenvalues --   -0.36176  -0.36143  -0.35183  -0.34175  -0.32929
 Alpha  occ. eigenvalues --   -0.31851  -0.30734  -0.30116  -0.29362
 Alpha virt. eigenvalues --   -0.01758  -0.00891  -0.00098   0.01004   0.02148
 Alpha virt. eigenvalues --    0.03441   0.04928   0.05676   0.05943   0.06016
 Alpha virt. eigenvalues --    0.06070   0.06193   0.06259   0.06450   0.07250

  Beta  occ. eigenvalues --  -88.33351 -88.33293 -88.33247 -88.33222 -88.33130
  Beta  occ. eigenvalues --  -88.32896 -88.32852 -24.51597 -24.51540 -24.51487
  Beta  occ. eigenvalues --  -24.51475 -24.51455 -24.51400 -24.51195 -24.51178
  Beta  occ. eigenvalues --  -24.51132 -24.50785 -24.50712 -24.50678 -24.50628
  Beta  occ. eigenvalues --  -24.50559 -10.21919 -10.21892 -10.21833 -10.21773
  Beta  occ. eigenvalues --  -10.21663 -10.21633 -10.21528 -10.21491 -10.21419
  Beta  occ. eigenvalues --  -10.21202 -10.21120 -10.21112 -10.21077 -10.21067
  Beta  occ. eigenvalues --  -10.17472 -10.17395 -10.17368 -10.17344 -10.17250
  Beta  occ. eigenvalues --  -10.17004 -10.16990 -10.16942 -10.16870 -10.16567
  Beta  occ. eigenvalues --  -10.16518 -10.16508 -10.16442 -10.16152 -10.16134
  Beta  occ. eigenvalues --  -10.16102 -10.16082 -10.16079 -10.16045 -10.16036
  Beta  occ. eigenvalues --  -10.15990 -10.15962 -10.15852 -10.15848 -10.15739
  Beta  occ. eigenvalues --  -10.15602 -10.15417 -10.14585 -10.14430 -10.14245
  Beta  occ. eigenvalues --  -10.14204 -10.14144 -10.14137 -10.14136 -10.14083
  Beta  occ. eigenvalues --  -10.14017 -10.13993 -10.13951 -10.13894 -10.13886
  Beta  occ. eigenvalues --  -10.13866 -10.13863 -10.13860 -10.13828 -10.13795
  Beta  occ. eigenvalues --  -10.13768 -10.13738 -10.13677 -10.13664 -10.13623
  Beta  occ. eigenvalues --  -10.13580 -10.13558 -10.13537 -10.13475 -10.13288
  Beta  occ. eigenvalues --  -10.12856  -7.94083  -7.94025  -7.93951  -7.93928
  Beta  occ. eigenvalues --   -7.93834  -7.93604  -7.93571  -5.95646  -5.95588
  Beta  occ. eigenvalues --   -5.95526  -5.95503  -5.95409  -5.95177  -5.95138
  Beta  occ. eigenvalues --   -5.95122  -5.95065  -5.94981  -5.94958  -5.94864
  Beta  occ. eigenvalues --   -5.94667  -5.94633  -5.94609  -5.94589  -5.94537
  Beta  occ. eigenvalues --   -5.94515  -5.94420  -5.94191  -5.94176  -1.36141
  Beta  occ. eigenvalues --   -1.36109  -1.36108  -1.36063  -1.36056  -1.36005
  Beta  occ. eigenvalues --   -1.35855  -1.35755  -1.35680  -1.35654  -1.35647
  Beta  occ. eigenvalues --   -1.35391  -1.35214  -1.35111  -1.07081  -1.06978
  Beta  occ. eigenvalues --   -1.06850  -1.06713  -1.06606  -1.06422  -1.05844
  Beta  occ. eigenvalues --   -1.04178  -1.03891  -1.03559  -1.03208  -1.02869
  Beta  occ. eigenvalues --   -1.02646  -1.02274  -0.97384  -0.96899  -0.96277
  Beta  occ. eigenvalues --   -0.95531  -0.94729  -0.93966  -0.93133  -0.91446
  Beta  occ. eigenvalues --   -0.91386  -0.91316  -0.91289  -0.91172  -0.91166
  Beta  occ. eigenvalues --   -0.90806  -0.90201  -0.90121  -0.89743  -0.89712
  Beta  occ. eigenvalues --   -0.89552  -0.89376  -0.89004  -0.88842  -0.88703
  Beta  occ. eigenvalues --   -0.88141  -0.87177  -0.86167  -0.85170  -0.84521
  Beta  occ. eigenvalues --   -0.80805  -0.79987  -0.79173  -0.78964  -0.78824
  Beta  occ. eigenvalues --   -0.78091  -0.77702  -0.77445  -0.77391  -0.77070
  Beta  occ. eigenvalues --   -0.76843  -0.76527  -0.75825  -0.75338  -0.73023
  Beta  occ. eigenvalues --   -0.72801  -0.72736  -0.72641  -0.72301  -0.72133
  Beta  occ. eigenvalues --   -0.71749  -0.71679  -0.71561  -0.71426  -0.71298
  Beta  occ. eigenvalues --   -0.71141  -0.70928  -0.70772  -0.69365  -0.69192
  Beta  occ. eigenvalues --   -0.68929  -0.68622  -0.68352  -0.68046  -0.67673
  Beta  occ. eigenvalues --   -0.66836  -0.65813  -0.65377  -0.65053  -0.64792
  Beta  occ. eigenvalues --   -0.64547  -0.64286  -0.64123  -0.63838  -0.63761
  Beta  occ. eigenvalues --   -0.63722  -0.63492  -0.63465  -0.62493  -0.61950
  Beta  occ. eigenvalues --   -0.61823  -0.61778  -0.61670  -0.61604  -0.61540
  Beta  occ. eigenvalues --   -0.61486  -0.61366  -0.61323  -0.61164  -0.60986
  Beta  occ. eigenvalues --   -0.60974  -0.60764  -0.60659  -0.60580  -0.60559
  Beta  occ. eigenvalues --   -0.60521  -0.60293  -0.60248  -0.60142  -0.60058
  Beta  occ. eigenvalues --   -0.59976  -0.59801  -0.59394  -0.59231  -0.59013
  Beta  occ. eigenvalues --   -0.58695  -0.58082  -0.57803  -0.57305  -0.56979
  Beta  occ. eigenvalues --   -0.56804  -0.56697  -0.56577  -0.56447  -0.56274
  Beta  occ. eigenvalues --   -0.56165  -0.56018  -0.55889  -0.55842  -0.55680
  Beta  occ. eigenvalues --   -0.55439  -0.54941  -0.54389  -0.54279  -0.54200
  Beta  occ. eigenvalues --   -0.54024  -0.53873  -0.53602  -0.53253  -0.53198
  Beta  occ. eigenvalues --   -0.52908  -0.52818  -0.52705  -0.52622  -0.52165
  Beta  occ. eigenvalues --   -0.52048  -0.51531  -0.51406  -0.51277  -0.51185
  Beta  occ. eigenvalues --   -0.51122  -0.50964  -0.50881  -0.50787  -0.50645
  Beta  occ. eigenvalues --   -0.50614  -0.50359  -0.50331  -0.50079  -0.49822
  Beta  occ. eigenvalues --   -0.49590  -0.49303  -0.49203  -0.48973  -0.48821
  Beta  occ. eigenvalues --   -0.48601  -0.48475  -0.48022  -0.47883  -0.47741
  Beta  occ. eigenvalues --   -0.47694  -0.47619  -0.47423  -0.47146  -0.46752
  Beta  occ. eigenvalues --   -0.46407  -0.45930  -0.45861  -0.45739  -0.45617
  Beta  occ. eigenvalues --   -0.45395  -0.43925  -0.42950  -0.42362  -0.41446
  Beta  occ. eigenvalues --   -0.40534  -0.39387  -0.38268  -0.37300  -0.37201
  Beta  occ. eigenvalues --   -0.37128  -0.37123  -0.37011  -0.36972  -0.36612
  Beta  occ. eigenvalues --   -0.36564  -0.36508  -0.36479  -0.36441  -0.36304
  Beta  occ. eigenvalues --   -0.36176  -0.36143  -0.35183  -0.34175  -0.32929
  Beta  occ. eigenvalues --   -0.31851  -0.30734  -0.30116  -0.29362
  Beta virt. eigenvalues --   -0.01758  -0.00891  -0.00098   0.01004   0.02148
  Beta virt. eigenvalues --    0.03441   0.04928   0.05676   0.05943   0.06016
  Beta virt. eigenvalues --    0.06070   0.06193   0.06259   0.06450   0.07250

 Mulliken charges and spin densities:
               1          2
     1  C    0.014044  -0.000000
     2  C    0.015676   0.000000
     3  C   -0.015824  -0.000000
     4  C   -0.006104   0.000000
     5  C    0.086223  -0.000000
     6  F   -0.130497  -0.000000
     7  C    0.006691   0.000000
     8  C   -0.167209   0.000000
     9  C    0.127523   0.000000
    10  F   -0.127017  -0.000000
    11  C    0.025063  -0.000000
    12  C   -0.158368   0.000000
    13  S    0.196012  -0.000000
    14  C    0.054464  -0.000000
    15  C   -0.003432   0.000000
    16  C    0.026155   0.000000
    17  C   -0.024087  -0.000000
    18  C    0.120084   0.000000
    19  F   -0.115014  -0.000000
    20  C   -0.011446   0.000000
    21  C   -0.205096   0.000000
    22  C    0.153211  -0.000000
    23  F   -0.113171   0.000000
    24  C    0.014593   0.000000
    25  C   -0.154247  -0.000000
    26  S    0.189314  -0.000000
    27  C    0.054349  -0.000000
    28  C   -0.003341  -0.000000
    29  C    0.025734  -0.000000
    30  C   -0.024075  -0.000000
    31  C    0.120896  -0.000000
    32  F   -0.114387   0.000000
    33  C   -0.011137   0.000000
    34  C   -0.205775   0.000000
    35  C    0.153545   0.000000
    36  F   -0.113149  -0.000000
    37  C    0.013093   0.000000
    38  C   -0.151771   0.000000
    39  S    0.190036  -0.000000
    40  C    0.055753  -0.000000
    41  C    0.005622   0.000000
    42  C   -0.006849  -0.000000
    43  C    0.006356   0.000000
    44  C    0.096746  -0.000000
    45  F   -0.126659  -0.000000
    46  C   -0.000164   0.000000
    47  C   -0.168299  -0.000000
    48  C    0.124172   0.000000
    49  F   -0.126510  -0.000000
    50  C    0.026995  -0.000000
    51  C   -0.155994   0.000000
    52  S    0.197915  -0.000000
    53  C    0.055370  -0.000000
    54  C    0.005169   0.000000
    55  C   -0.004890   0.000000
    56  C    0.006702  -0.000000
    57  C    0.096924   0.000000
    58  F   -0.127288   0.000000
    59  C   -0.001100   0.000000
    60  C   -0.169892  -0.000000
    61  C    0.123332   0.000000
    62  F   -0.126144  -0.000000
    63  C    0.027252  -0.000000
    64  C   -0.155642   0.000000
    65  S    0.200041   0.000000
    66  C    0.054136  -0.000000
    67  C    0.004952  -0.000000
    68  C   -0.006398   0.000000
    69  C    0.006753   0.000000
    70  C    0.096057   0.000000
    71  F   -0.126986  -0.000000
    72  C    0.000050   0.000000
    73  C   -0.168634  -0.000000
    74  C    0.124121  -0.000000
    75  F   -0.126466   0.000000
    76  C    0.026851  -0.000000
    77  C   -0.155286   0.000000
    78  S    0.197259   0.000000
    79  C    0.054232   0.000000
    80  C    0.003877  -0.000000
    81  C   -0.003145   0.000000
    82  C    0.009077  -0.000000
    83  C    0.099818   0.000000
    84  F   -0.127339  -0.000000
    85  C   -0.003091  -0.000000
    86  C   -0.176005   0.000000
    87  C    0.104169   0.000000
    88  F   -0.128725  -0.000000
    89  C    0.043659   0.000000
    90  C   -0.136617  -0.000000
    91  S    0.192779  -0.000000
    92  H    0.013941   0.000000
    93  H    0.009852   0.000000
    94  H    0.016947   0.000000
    95  H    0.023312   0.000000
    96  H    0.021111   0.000000
    97  H    0.013943   0.000000
    98  H    0.011611  -0.000000
    99  H    0.017795   0.000000
   100  H    0.023678  -0.000000
   101  H    0.010749  -0.000000
   102  H    0.012045  -0.000000
   103  H    0.019000   0.000000
   104  H    0.022734  -0.000000
   105  H    0.009341  -0.000000
   106  H    0.019479   0.000000
   107  H    0.018497   0.000000
   108  H    0.021124  -0.000000
   109  H    0.013058  -0.000000
   110  H    0.019640   0.000000
   111  H    0.017250   0.000000
   112  H    0.021251  -0.000000
   113  H    0.013335  -0.000000
   114  H    0.019789   0.000000
   115  H    0.016971   0.000000
   116  H    0.020881  -0.000000
   117  H    0.012436  -0.000000
   118  H    0.019407   0.000000
   119  H    0.016660   0.000000
   120  H    0.023915   0.000000
   121  H    0.050674   0.000000
 Sum of Mulliken charges =  -0.00000  -0.00000

 Dipole moment (field-independent basis, Debye):
    X=             -1.7712    Y=              2.1855    Z=             -1.6537  Tot=              3.2632
 Quadrupole moment (field-independent basis, Debye-Ang):
   XX=           -425.0224   YY=           -533.6329   ZZ=           -560.3372
   XY=             44.6929   XZ=            -36.1971   YZ=             -0.1193

 Normal termination of Gaussian 16 at Sun Jul 26 20:09:29 2020.
