 Gaussian 16, Revision A.03,
 Gaussian 16:  EM64L-G16RevA.03 25-Dec-2016

 ---------------------------------------------------------------
 #P uLC-wPBE/cc-pVDZ iop(3/107=0297700000, 3/108=0297700000) opt
 ---------------------------------------------------------------

 -----------------
 H37 C63 S14 O7 F7
 -----------------
 Symbolic Z-matrix:
 Charge =  0 Multiplicity = 1

 SCF Done:  E(ULC-wPBE) =  -9218.41165471     A.U. after   16 cycles
 SCF Done:  E(ULC-wPBE) =  -9218.50879664     A.U. after   13 cycles
 SCF Done:  E(ULC-wPBE) =  -9218.60559634     A.U. after   14 cycles
 SCF Done:  E(ULC-wPBE) =  -9218.63011863     A.U. after   14 cycles
 SCF Done:  E(ULC-wPBE) =  -9218.63601335     A.U. after   13 cycles
 SCF Done:  E(ULC-wPBE) =  -9218.63915577     A.U. after   15 cycles
 SCF Done:  E(ULC-wPBE) =  -9218.63865105     A.U. after   17 cycles
 SCF Done:  E(ULC-wPBE) =  -9218.64235315     A.U. after   13 cycles
 SCF Done:  E(ULC-wPBE) =  -9218.64459874     A.U. after   15 cycles
 SCF Done:  E(ULC-wPBE) =  -9218.64537901     A.U. after   15 cycles
 SCF Done:  E(ULC-wPBE) =  -9218.64762254     A.U. after   11 cycles
 SCF Done:  E(ULC-wPBE) =  -9218.64762467     A.U. after   11 cycles
 SCF Done:  E(ULC-wPBE) =  -9218.64762683     A.U. after   10 cycles
 SCF Done:  E(ULC-wPBE) =  -9218.64762747     A.U. after   10 cycles
 SCF Done:  E(ULC-wPBE) =  -9218.64762767     A.U. after    7 cycles
 SCF Done:  E(ULC-wPBE) =  -9218.64762776     A.U. after    8 cycles
 SCF Done:  E(ULC-wPBE) =  -9218.64762793     A.U. after    7 cycles
 SCF Done:  E(ULC-wPBE) =  -9218.64762785     A.U. after    7 cycles
 SCF Done:  E(ULC-wPBE) =  -9218.64762794     A.U. after    6 cycles
 SCF Done:  E(ULC-wPBE) =  -9218.64762796     A.U. after    5 cycles
 Optimization completed on the basis of negligible forces.
    -- Stationary point found.

                         Standard orientation:
 ---------------------------------------------------------------------
 Center     Atomic      Atomic             Coordinates (Angstroms)
 Number     Number       Type             X           Y           Z
 ---------------------------------------------------------------------
      1          6           0       26.465733    0.409956   -1.266232
      2          6           0       25.862215   -0.528661   -2.054695
      3          6           0       24.471325   -0.587637   -1.786348
      4          9           0       23.651645   -1.437546   -2.436850
      5          6           0       24.012813    0.277367   -0.820913
      6         16           0       25.356610    1.204714   -0.217536
      7          6           0       22.648900    0.435932   -0.342038
      8          6           0       22.189697    1.307752    0.628648
      9          8           0       23.065178    2.141806    1.246444
     10          6           0       22.542750    3.004493    2.240661
     11          6           0       20.791065    1.204938    0.874343
     12          6           0       20.192400    0.253274    0.081766
     13         16           0       21.331563   -0.506855   -0.971749
     14          6           0       18.786599   -0.135542    0.053258
     15          6           0       18.245677   -1.347440   -0.301828
     16          6           0       16.836305   -1.330351   -0.193593
     17          9           0       16.085394   -2.411012   -0.480930
     18          6           0       16.280528   -0.147692    0.235536
     19         16           0       17.557399    1.006152    0.499399
     20          6           0       14.875673    0.152156    0.447807
     21          6           0       14.320689    1.350169    0.862059
     22          8           0       15.131470    2.408802    1.117932
     23          6           0       14.509918    3.612512    1.531681
     24          6           0       12.903129    1.312069    0.983523
     25          6           0       12.385973    0.080049    0.655459
     26         16           0       13.626125   -1.027891    0.186491
     27          6           0       10.988252   -0.337060    0.663636
     28          6           0       10.478155   -1.599928    0.843975
     29          6           0        9.065719   -1.594021    0.789254
     30          9           0        8.340691   -2.717754    0.948770
     31          6           0        8.477454   -0.368992    0.576425
     32         16           0        9.728319    0.831276    0.416375
     33          6           0        7.060793   -0.063865    0.485447
     34          6           0        6.475390    1.168005    0.251552
     35          8           0        7.263462    2.260181    0.080074
     36          6           0        6.612191    3.493323   -0.168775
     37          6           0        5.052779    1.130640    0.232025
     38          6           0        4.562863   -0.136668    0.448580
     39         16           0        5.836066   -1.284877    0.662856
     40          6           0        3.168716   -0.562140    0.503025
     41          6           0        2.630046   -1.626891    1.184005
     42          6           0        1.232009   -1.703773    0.990383
     43          9           0        0.483088   -2.661967    1.568996
     44          6           0        0.682154   -0.732408    0.186483
     45         16           0        1.954372    0.315709   -0.373502
     46          6           0       -0.713118   -0.559972   -0.176470
     47          6           0       -1.258148    0.409448   -0.999984
     48          8           0       -0.446265    1.339529   -1.564681
     49          6           0       -1.052056    2.288153   -2.424997
     50          6           0       -2.667079    0.293642   -1.164598
     51          6           0       -3.187754   -0.766105   -0.458317
     52         16           0       -1.962354   -1.613190    0.416980
     53          6           0       -4.578616   -1.199727   -0.386836
     54          6           0       -5.064954   -2.461425   -0.143415
     55          6           0       -6.478214   -2.476847   -0.159494
     56          9           0       -7.182050   -3.606572    0.045632
     57          6           0       -7.089713   -1.270500   -0.410194
     58         16           0       -5.861997   -0.053745   -0.617025
     59          6           0       -8.512365   -0.992780   -0.495398
     60          6           0       -9.122113    0.226639   -0.732919
     61          8           0       -8.356115    1.331600   -0.919045
     62          6           0       -9.033036    2.556796   -1.139470
     63          6           0      -10.543344    0.158359   -0.763163
     64          6           0      -11.006888   -1.118074   -0.544207
     65         16           0       -9.712586   -2.233128   -0.288865
     66          6           0      -12.392363   -1.574853   -0.507662
     67          6           0      -12.885851   -2.826437   -0.784311
     68          6           0      -14.298096   -2.872688   -0.660831
     69          9           0      -14.991279   -3.986342   -0.925721
     70          6           0      -14.892601   -1.692342   -0.290207
     71         16           0      -13.664188   -0.482812   -0.061492
     72          6           0      -16.307250   -1.416835   -0.082104
     73          6           0      -17.218675   -2.187868    0.614786
     74          8           0      -16.821490   -3.333926    1.212815
     75          6           0      -17.816612   -4.081268    1.888679
     76          6           0      -18.532983   -1.631102    0.621070
     77          6           0      -18.604069   -0.437598   -0.058535
     78         16           0      -17.069963    0.008800   -0.714480
     79          6           0      -19.772258    0.416468   -0.254608
     80          6           0      -20.031324    1.283474   -1.287477
     81          6           0      -21.289691    1.920507   -1.134431
     82          9           0      -21.760269    2.777980   -2.048558
     83          6           0      -21.992000    1.566570   -0.010077
     84         16           0      -21.058745    0.423419    0.908498
     85          6           0      -23.300237    2.037469    0.427073
     86          6           0      -23.748362    3.344000    0.465738
     87          8           0      -22.930238    4.355047    0.089370
     88          6           0      -23.471345    5.662115    0.129600
     89          6           0      -25.090858    3.459105    0.948476
     90          6           0      -25.624946    2.241898    1.272371
     91         16           0      -24.533865    0.952013    0.986354
     92          1           0       27.521701    0.683607   -1.243816
     93          1           0       26.363914   -1.155313   -2.794129
     94          1           0       23.393474    3.592981    2.613630
     95          1           0       22.100636    2.434919    3.079492
     96          1           0       21.782864    3.690883    1.822313
     97          1           0       20.243666    1.784006    1.620303
     98          1           0       18.819231   -2.225257   -0.605948
     99          1           0       13.811883    3.992112    0.762306
    100          1           0       15.319837    4.342337    1.674817
    101          1           0       13.967644    3.480567    2.486649
    102          1           0       12.282547    2.143372    1.322860
    103          1           0       11.073105   -2.496119    1.030882
    104          1           0        7.408680    4.241314   -0.292077
    105          1           0        5.965977    3.788022    0.679136
    106          1           0        6.007873    3.451538   -1.094124
    107          1           0        4.406773    1.999149    0.091734
    108          1           0        3.192484   -2.316534    1.816556
    109          1           0       -1.530994    1.798504   -3.293333
    110          1           0       -0.241728    2.940570   -2.781061
    111          1           0       -1.801280    2.899966   -1.888586
    112          1           0       -3.277651    0.941506   -1.796106
    113          1           0       -4.451524   -3.350070    0.018076
    114          1           0       -8.252041    3.322944   -1.249283
    115          1           0       -9.681170    2.819936   -0.282890
    116          1           0       -9.640171    2.522867   -2.063322
    117          1           0      -11.205294    1.003371   -0.961214
    118          1           0      -12.279965   -3.677918   -1.101325
    119          1           0      -18.264422   -3.505596    2.720688
    120          1           0      -18.616093   -4.411073    1.198910
    121          1           0      -17.308208   -4.966388    2.297521
    122          1           0      -19.403031   -2.091778    1.092858
    123          1           0      -19.376110    1.439975   -2.147051
    124          1           0      -22.674281    6.333944   -0.220765
    125          1           0      -24.346467    5.761753   -0.539993
    126          1           0      -23.761908    5.953168    1.156991
    127          1           0      -25.635681    4.398117    1.059845
    128          1           0      -26.621290    2.039140    1.668089
 ---------------------------------------------------------------------

 Alpha virt. eigenvalues --    0.09983   0.10339   0.10508   0.10550   0.10748
 Alpha virt. eigenvalues --    0.10849   0.11149   0.11215   0.11403   0.11703
 Alpha virt. eigenvalues --    0.11931   0.12054   0.12348   0.13078   0.13236

  Beta  occ. eigenvalues --  -88.27405 -88.27369 -88.27367 -88.27302 -88.27259
  Beta  occ. eigenvalues --  -88.27244 -88.27236 -88.27137 -88.27095 -88.27081
  Beta  occ. eigenvalues --  -88.26992 -88.26972 -88.26761 -88.26691 -24.45737
  Beta  occ. eigenvalues --  -24.45660 -24.45600 -24.45490 -24.45169 -24.44976
  Beta  occ. eigenvalues --  -24.44943 -18.97651 -18.97600 -18.97551 -18.97451
  Beta  occ. eigenvalues --  -18.97124 -18.96663 -18.96549 -10.14994 -10.14936
  Beta  occ. eigenvalues --  -10.14921 -10.14860 -10.14797 -10.14677 -10.14245
  Beta  occ. eigenvalues --  -10.13598 -10.13516 -10.13460 -10.13387 -10.13359
  Beta  occ. eigenvalues --  -10.13117 -10.13098 -10.13087 -10.13062 -10.13052
  Beta  occ. eigenvalues --  -10.12965 -10.12685 -10.12371 -10.12335 -10.11848
  Beta  occ. eigenvalues --  -10.11802 -10.11774 -10.11675 -10.11562 -10.11506
  Beta  occ. eigenvalues --  -10.11460 -10.11413 -10.11390 -10.11324 -10.11217
  Beta  occ. eigenvalues --  -10.11188 -10.11163 -10.11150 -10.11084 -10.10945
  Beta  occ. eigenvalues --  -10.10812 -10.10747 -10.10679 -10.10572 -10.10516
  Beta  occ. eigenvalues --  -10.10515 -10.10426 -10.10204 -10.10173 -10.10152
  Beta  occ. eigenvalues --  -10.09886 -10.09532 -10.08160 -10.08039 -10.08032
  Beta  occ. eigenvalues --  -10.08016 -10.08005 -10.07988 -10.07984 -10.07928
  Beta  occ. eigenvalues --  -10.07902 -10.07858 -10.07808 -10.07706 -10.07679
  Beta  occ. eigenvalues --  -10.07393  -7.87942  -7.87904  -7.87837  -7.87779
  Beta  occ. eigenvalues --   -7.87770  -7.87766  -7.87704  -7.87644  -7.87588
  Beta  occ. eigenvalues --   -7.87564  -7.87512  -7.87499  -7.87268  -7.87166
  Beta  occ. eigenvalues --   -5.89801  -5.89761  -5.89716  -5.89649  -5.89636
  Beta  occ. eigenvalues --   -5.89633  -5.89583  -5.89514  -5.89458  -5.89443
  Beta  occ. eigenvalues --   -5.89369  -5.89352  -5.89309  -5.89269  -5.89204
  Beta  occ. eigenvalues --   -5.89141  -5.89137  -5.89137  -5.89124  -5.89071
  Beta  occ. eigenvalues --   -5.89031  -5.89003  -5.88946  -5.88931  -5.88858
  Beta  occ. eigenvalues --   -5.88858  -5.88835  -5.88800  -5.88723  -5.88682
  Beta  occ. eigenvalues --   -5.88660  -5.88656  -5.88626  -5.88590  -5.88538
  Beta  occ. eigenvalues --   -5.88513  -5.88482  -5.88450  -5.88445  -5.88393
  Beta  occ. eigenvalues --   -5.88164  -5.88083  -1.29742  -1.29665  -1.29603
  Beta  occ. eigenvalues --   -1.29489  -1.29240  -1.29191  -1.29129  -1.16657
  Beta  occ. eigenvalues --   -1.16604  -1.16557  -1.16458  -1.16148  -1.15915
  Beta  occ. eigenvalues --   -1.15773  -1.01382  -1.01218  -1.01051  -1.00856
  Beta  occ. eigenvalues --   -1.00622  -1.00361  -0.99675  -0.99481  -0.99123
  Beta  occ. eigenvalues --   -0.98735  -0.98344  -0.97970  -0.97719  -0.97532
  Beta  occ. eigenvalues --   -0.90655  -0.90199  -0.89602  -0.88927  -0.88180
  Beta  occ. eigenvalues --   -0.87418  -0.86789  -0.86068  -0.85858  -0.85747
  Beta  occ. eigenvalues --   -0.85635  -0.85575  -0.85418  -0.85138  -0.84664
  Beta  occ. eigenvalues --   -0.84588  -0.84400  -0.84350  -0.84240  -0.84034
  Beta  occ. eigenvalues --   -0.83397  -0.83124  -0.82741  -0.82326  -0.82022
  Beta  occ. eigenvalues --   -0.81883  -0.81780  -0.81381  -0.79868  -0.79473
  Beta  occ. eigenvalues --   -0.79039  -0.78473  -0.77673  -0.76906  -0.76496
  Beta  occ. eigenvalues --   -0.73304  -0.72898  -0.72424  -0.71920  -0.71422
  Beta  occ. eigenvalues --   -0.70998  -0.70031  -0.69557  -0.69200  -0.68671
  Beta  occ. eigenvalues --   -0.68193  -0.67970  -0.67587  -0.67110  -0.66712
  Beta  occ. eigenvalues --   -0.66567  -0.66250  -0.66046  -0.65931  -0.65857
  Beta  occ. eigenvalues --   -0.65677  -0.65650  -0.65260  -0.64816  -0.64543
  Beta  occ. eigenvalues --   -0.64363  -0.64218  -0.64088  -0.63955  -0.63823
  Beta  occ. eigenvalues --   -0.63598  -0.62882  -0.62236  -0.61959  -0.61581
  Beta  occ. eigenvalues --   -0.59817  -0.59653  -0.59435  -0.59119  -0.58684
  Beta  occ. eigenvalues --   -0.58259  -0.58091  -0.58024  -0.57988  -0.57904
  Beta  occ. eigenvalues --   -0.57848  -0.57587  -0.57383  -0.57268  -0.56666
  Beta  occ. eigenvalues --   -0.56615  -0.56585  -0.56537  -0.56482  -0.56442
  Beta  occ. eigenvalues --   -0.56406  -0.56398  -0.56335  -0.56263  -0.56086
  Beta  occ. eigenvalues --   -0.55870  -0.55744  -0.55407  -0.54911  -0.54739
  Beta  occ. eigenvalues --   -0.54647  -0.54572  -0.54394  -0.54282  -0.54161
  Beta  occ. eigenvalues --   -0.53985  -0.53925  -0.53828  -0.53670  -0.53491
  Beta  occ. eigenvalues --   -0.53321  -0.53242  -0.53144  -0.52396  -0.52111
  Beta  occ. eigenvalues --   -0.51782  -0.51525  -0.51500  -0.51312  -0.51002
  Beta  occ. eigenvalues --   -0.50899  -0.50867  -0.50802  -0.50719  -0.50475
  Beta  occ. eigenvalues --   -0.50253  -0.50198  -0.49765  -0.49571  -0.49393
  Beta  occ. eigenvalues --   -0.48983  -0.48710  -0.48566  -0.48400  -0.48220
  Beta  occ. eigenvalues --   -0.47938  -0.47576  -0.47466  -0.47243  -0.47159
  Beta  occ. eigenvalues --   -0.47111  -0.46990  -0.46806  -0.46640  -0.46499
  Beta  occ. eigenvalues --   -0.46365  -0.46284  -0.45904  -0.45699  -0.45675
  Beta  occ. eigenvalues --   -0.45599  -0.45406  -0.45285  -0.45079  -0.44602
  Beta  occ. eigenvalues --   -0.43988  -0.43683  -0.43419  -0.43389  -0.43315
  Beta  occ. eigenvalues --   -0.43222  -0.43124  -0.43091  -0.43038  -0.42932
  Beta  occ. eigenvalues --   -0.42859  -0.42836  -0.42800  -0.42790  -0.42476
  Beta  occ. eigenvalues --   -0.42204  -0.42004  -0.41949  -0.41838  -0.41765
  Beta  occ. eigenvalues --   -0.41620  -0.40124  -0.39451  -0.38545  -0.37694
  Beta  occ. eigenvalues --   -0.36909  -0.35757  -0.35023  -0.34371  -0.34237
  Beta  occ. eigenvalues --   -0.34216  -0.34210  -0.34129  -0.34009  -0.33620
  Beta  occ. eigenvalues --   -0.33302  -0.33114  -0.33028  -0.32943  -0.32738
  Beta  occ. eigenvalues --   -0.32728  -0.32520  -0.30503  -0.29845  -0.28657
  Beta  occ. eigenvalues --   -0.27510  -0.26498  -0.25347  -0.24452
  Beta virt. eigenvalues --   -0.01838  -0.00996   0.00013   0.00971   0.02133
  Beta virt. eigenvalues --    0.03522   0.04919   0.05643   0.06663   0.07554
  Beta virt. eigenvalues --    0.08072   0.09037   0.09394   0.09734   0.09861

 Mulliken charges and spin densities:
               1          2
     1  C   -0.135388  -0.000000
     2  C    0.059841   0.000000
     3  C    0.091683   0.000000
     4  F   -0.128124  -0.000000
     5  C   -0.139432  -0.000000
     6  S    0.181731   0.000000
     7  C   -0.144488   0.000000
     8  C    0.150507  -0.000000
     9  O   -0.256530   0.000000
    10  C    0.056684   0.000000
    11  C    0.008206  -0.000000
    12  C   -0.123536  -0.000000
    13  S    0.185509  -0.000000
    14  C   -0.128096  -0.000000
    15  C    0.043737  -0.000000
    16  C    0.109645   0.000000
    17  F   -0.124320  -0.000000
    18  C   -0.127626  -0.000000
    19  S    0.184757   0.000000
    20  C   -0.154269  -0.000000
    21  C    0.148055   0.000000
    22  O   -0.256942   0.000000
    23  C    0.057170  -0.000000
    24  C    0.009667  -0.000000
    25  C   -0.121970   0.000000
    26  S    0.187962  -0.000000
    27  C   -0.129548   0.000000
    28  C    0.043900  -0.000000
    29  C    0.109873  -0.000000
    30  F   -0.123938  -0.000000
    31  C   -0.127095   0.000000
    32  S    0.185111  -0.000000
    33  C   -0.154600  -0.000000
    34  C    0.148273   0.000000
    35  O   -0.257071   0.000000
    36  C    0.057107   0.000000
    37  C    0.009694  -0.000000
    38  C   -0.121684   0.000000
    39  S    0.188321  -0.000000
    40  C   -0.129693  -0.000000
    41  C    0.043969   0.000000
    42  C    0.109893   0.000000
    43  F   -0.123874  -0.000000
    44  C   -0.126985  -0.000000
    45  S    0.185427  -0.000000
    46  C   -0.154531   0.000000
    47  C    0.148321  -0.000000
    48  O   -0.257123  -0.000000
    49  C    0.057037   0.000000
    50  C    0.009716   0.000000
    51  C   -0.121646   0.000000
    52  S    0.188327   0.000000
    53  C   -0.129386  -0.000000
    54  C    0.043940  -0.000000
    55  C    0.110073   0.000000
    56  F   -0.123814   0.000000
    57  C   -0.127028  -0.000000
    58  S    0.185790   0.000000
    59  C   -0.154088   0.000000
    60  C    0.147957   0.000000
    61  O   -0.257081   0.000000
    62  C    0.056492   0.000000
    63  C    0.010931   0.000000
    64  C   -0.122286  -0.000000
    65  S    0.189477  -0.000000
    66  C   -0.121621   0.000000
    67  C    0.024952  -0.000000
    68  C    0.144806  -0.000000
    69  F   -0.110149   0.000000
    70  C   -0.167601   0.000000
    71  S    0.182264  -0.000000
    72  C   -0.183148  -0.000000
    73  C    0.174240   0.000000
    74  O   -0.232417   0.000000
    75  C    0.051116  -0.000000
    76  C   -0.004861  -0.000000
    77  C   -0.115457   0.000000
    78  S    0.184199  -0.000000
    79  C   -0.124944  -0.000000
    80  C    0.024327   0.000000
    81  C    0.145669  -0.000000
    82  F   -0.111824   0.000000
    83  C   -0.157147  -0.000000
    84  S    0.184119  -0.000000
    85  C   -0.198900   0.000000
    86  C    0.160123  -0.000000
    87  O   -0.232807   0.000000
    88  C    0.051107   0.000000
    89  C    0.008534   0.000000
    90  C   -0.126276  -0.000000
    91  S    0.177728   0.000000
    92  H    0.033078   0.000000
    93  H    0.007169   0.000000
    94  H    0.058147   0.000000
    95  H    0.049293  -0.000000
    96  H    0.047627  -0.000000
    97  H    0.002032   0.000000
    98  H    0.010950   0.000000
    99  H    0.049014   0.000000
   100  H    0.057445   0.000000
   101  H    0.049660   0.000000
   102  H    0.002516   0.000000
   103  H    0.011441  -0.000000
   104  H    0.057440  -0.000000
   105  H    0.049728  -0.000000
   106  H    0.049389   0.000000
   107  H    0.002702  -0.000000
   108  H    0.011518   0.000000
   109  H    0.051095   0.000000
   110  H    0.057514  -0.000000
   111  H    0.048433  -0.000000
   112  H    0.003042   0.000000
   113  H    0.011911   0.000000
   114  H    0.057622   0.000000
   115  H    0.050874  -0.000000
   116  H    0.050292  -0.000000
   117  H    0.003709  -0.000000
   118  H    0.012886   0.000000
   119  H    0.046389  -0.000000
   120  H    0.048606   0.000000
   121  H    0.058745   0.000000
   122  H    0.006013  -0.000000
   123  H    0.010386  -0.000000
   124  H    0.057238   0.000000
   125  H    0.046299   0.000000
   126  H    0.044476  -0.000000
   127  H    0.004283  -0.000000
   128  H    0.032421   0.000000
 Sum of Mulliken charges =  -0.00000   0.00000

 Dipole moment (field-independent basis, Debye):
    X=             -5.1213    Y=             11.3529    Z=              1.7333  Tot=             12.5746
 Quadrupole moment (field-independent basis, Debye-Ang):
   XX=           -461.5462   YY=           -546.6071   ZZ=           -605.2403
   XY=             25.0284   XZ=             14.2768   YZ=             -2.4589

 Normal termination of Gaussian 16 at Fri Jul 24 22:06:05 2020.
