 Gaussian 16, Revision A.03,
 Gaussian 16:  EM64L-G16RevA.03 25-Dec-2016

 ---------------------------------------------------------------
 #P uLC-wPBE/cc-pVDZ iop(3/107=0095600000, 3/108=0095600000) opt
 ---------------------------------------------------------------

 --------------
 H22 C50 S5 F10
 --------------
 Symbolic Z-matrix:
 Charge =  0 Multiplicity = 1

 SCF Done:  E(ULC-wPBE) =  -4904.46474525     A.U. after   20 cycles
 SCF Done:  E(ULC-wPBE) =  -4904.54233270     A.U. after   14 cycles
 SCF Done:  E(ULC-wPBE) =  -4904.60351102     A.U. after   15 cycles
 SCF Done:  E(ULC-wPBE) =  -4904.61997603     A.U. after   14 cycles
 SCF Done:  E(ULC-wPBE) =  -4904.62752238     A.U. after   15 cycles
 SCF Done:  E(ULC-wPBE) =  -4904.63168206     A.U. after   14 cycles
 SCF Done:  E(ULC-wPBE) =  -4904.63537698     A.U. after   15 cycles
 SCF Done:  E(ULC-wPBE) =  -4904.63658510     A.U. after   14 cycles
 SCF Done:  E(ULC-wPBE) =  -4904.63714434     A.U. after   14 cycles
 SCF Done:  E(ULC-wPBE) =  -4904.63731691     A.U. after   13 cycles
 SCF Done:  E(ULC-wPBE) =  -4904.63753815     A.U. after   11 cycles
 SCF Done:  E(ULC-wPBE) =  -4904.63753860     A.U. after   10 cycles
 SCF Done:  E(ULC-wPBE) =  -4904.63753953     A.U. after   10 cycles
 SCF Done:  E(ULC-wPBE) =  -4904.63753972     A.U. after    8 cycles
 SCF Done:  E(ULC-wPBE) =  -4904.63753975     A.U. after    7 cycles
 SCF Done:  E(ULC-wPBE) =  -4904.63753985     A.U. after    6 cycles
 SCF Done:  E(ULC-wPBE) =  -4904.63753985     A.U. after    6 cycles
 SCF Done:  E(ULC-wPBE) =  -4904.63753980     A.U. after    6 cycles
 SCF Done:  E(ULC-wPBE) =  -4904.63753979     A.U. after    6 cycles
 SCF Done:  E(ULC-wPBE) =  -4904.63753978     A.U. after    6 cycles
 Optimization completed.
    -- Stationary point found.

                         Standard orientation:
 ---------------------------------------------------------------------
 Center     Atomic      Atomic             Coordinates (Angstroms)
 Number     Number       Type             X           Y           Z
 ---------------------------------------------------------------------
      1          6           0      -19.368703   -1.985922    0.562338
      2          6           0      -19.156264   -0.618208    0.792380
      3          6           0      -17.867083   -0.079177    0.743048
      4          6           0      -16.731373   -0.884623    0.461126
      5          6           0      -16.995831   -2.254951    0.235845
      6          9           0      -15.955164   -3.091455   -0.042734
      7          6           0      -18.273197   -2.811327    0.280815
      8          6           0      -15.378691   -0.322520    0.410478
      9          6           0      -14.967242    0.992820    0.622140
     10          9           0      -15.819041    2.001226    0.937156
     11          6           0      -13.581467    1.245538    0.501796
     12          6           0      -12.868949    0.097956    0.187613
     13         16           0      -13.944266   -1.276513    0.035656
     14          6           0      -11.424512   -0.049123   -0.017249
     15          6           0      -10.618627    1.073627   -0.322351
     16          6           0       -9.245277    0.935015   -0.521445
     17          6           0       -8.597067   -0.320178   -0.432007
     18          6           0       -9.419521   -1.423024   -0.113190
     19          9           0       -8.855491   -2.642902    0.043846
     20          6           0      -10.792798   -1.307558    0.086681
     21          6           0       -7.152996   -0.460921   -0.626630
     22          6           0       -6.427114   -1.447978   -1.280563
     23          9           0       -7.006688   -2.499928   -1.891366
     24          6           0       -5.023729   -1.250858   -1.319270
     25          6           0       -4.636437   -0.077818   -0.687428
     26         16           0       -6.035825    0.755493   -0.031047
     27          6           0       -3.288281    0.469268   -0.517766
     28          6           0       -3.061637    1.829969   -0.206924
     29          6           0       -1.772887    2.337979   -0.052259
     30          6           0       -0.618190    1.524332   -0.204893
     31          6           0       -0.879884    0.170114   -0.519036
     32          9           0        0.170282   -0.684306   -0.677000
     33          6           0       -2.155863   -0.359636   -0.668840
     34          6           0        0.734235    2.056028   -0.045431
     35          6           0        1.133213    3.352823    0.279345
     36          9           0        0.259799    4.362558    0.520990
     37          6           0        2.525367    3.580847    0.358868
     38          6           0        3.257235    2.432669    0.091681
     39         16           0        2.191843    1.088078   -0.265647
     40          6           0        4.712464    2.264889    0.077717
     41          6           0        5.574762    3.381790   -0.027753
     42          6           0        6.960206    3.232461   -0.035638
     43          6           0        7.584170    1.958492    0.054014
     44          6           0        6.694120    0.864056    0.151358
     45          9           0        7.205586   -0.395540    0.244481
     46          6           0        5.309899    0.989881    0.169025
     47          6           0        9.037628    1.802818    0.045188
     48          6           0       10.023985    2.787194   -0.020653
     49          9           0        9.749306    4.114904   -0.075291
     50          6           0       11.363197    2.336415   -0.018294
     51          6           0       11.446842    0.953333    0.053336
     52         16           0        9.848320    0.237673    0.105473
     53          6           0       12.648577    0.115313    0.080074
     54          6           0       13.896723    0.615911   -0.358846
     55          6           0       15.046300   -0.171932   -0.330630
     56          6           0       15.031169   -1.515731    0.130234
     57          6           0       13.767800   -1.986112    0.555007
     58          9           0       13.661039   -3.263719    1.017063
     59          6           0       12.609831   -1.216700    0.543335
     60          6           0       16.238756   -2.342618    0.158288
     61          6           0       17.539160   -2.002564   -0.211760
     62          9           0       17.887969   -0.775845   -0.676516
     63          6           0       18.516413   -3.023014   -0.078571
     64          6           0       17.956214   -4.183261    0.407660
     65         16           0       16.256321   -4.023304    0.697443
     66          1           0      -20.380714   -2.412027    0.600484
     67          1           0      -20.005545    0.042820    1.014092
     68          1           0      -17.721746    0.990600    0.925457
     69          1           0      -18.382456   -3.887540    0.092426
     70          1           0      -13.142824    2.234633    0.674273
     71          1           0      -11.081323    2.062741   -0.437985
     72          1           0       -8.643441    1.817218   -0.783097
     73          1           0      -11.353560   -2.212725    0.358219
     74          1           0       -4.341711   -1.937692   -1.833205
     75          1           0       -3.915972    2.513930   -0.100491
     76          1           0       -1.643065    3.398790    0.185244
     77          1           0       -2.246044   -1.431815   -0.885360
     78          1           0        2.951529    4.552384    0.632234
     79          1           0        5.151236    4.390188   -0.126896
     80          1           0        7.591275    4.122850   -0.123190
     81          1           0        4.711404    0.074309    0.272822
     82          1           0       12.218605    3.020585   -0.039125
     83          1           0       13.966254    1.639226   -0.751489
     84          1           0       15.991766    0.252791   -0.683485
     85          1           0       11.684229   -1.673872    0.919537
     86          1           0       19.572384   -2.882575   -0.334884
     87          1           0       18.451193   -5.137286    0.616920
 ---------------------------------------------------------------------

 The electronic state is 1-A.
 Alpha  occ. eigenvalues --  -88.16934 -88.16878 -88.16803 -88.16698 -88.16656
 Alpha  occ. eigenvalues --  -24.35924 -24.35873 -24.35771 -24.35706 -24.35638
 Alpha  occ. eigenvalues --  -24.35635 -24.35541 -24.35317 -24.34916 -24.34720
 Alpha  occ. eigenvalues --  -10.04927 -10.04873 -10.04781 -10.04721 -10.04703
 Alpha  occ. eigenvalues --  -10.04683 -10.04499 -10.04422 -10.04419 -10.04353
 Alpha  occ. eigenvalues --  -10.00641 -10.00617 -10.00539 -10.00524 -10.00452
 Alpha  occ. eigenvalues --  -10.00345 -10.00260 -10.00204 -10.00094  -9.99577
 Alpha  occ. eigenvalues --   -9.99535  -9.99422  -9.99369  -9.99303  -9.99262
 Alpha  occ. eigenvalues --   -9.99252  -9.99161  -9.99111  -9.99102  -9.97787
 Alpha  occ. eigenvalues --   -9.97637  -9.97598  -9.97537  -9.97516  -9.97470
 Alpha  occ. eigenvalues --   -9.97468  -9.97455  -9.97450  -9.97388  -9.97344
 Alpha  occ. eigenvalues --   -9.97329  -9.97303  -9.97272  -9.97242  -9.97232
 Alpha  occ. eigenvalues --   -9.97127  -9.97103  -9.97043  -9.96936  -9.96563
 Alpha  occ. eigenvalues --   -7.77175  -7.77084  -7.77009  -7.76896  -7.76858
 Alpha  occ. eigenvalues --   -5.79279  -5.79202  -5.79127  -5.79005  -5.78975
 Alpha  occ. eigenvalues --   -5.78843  -5.78746  -5.78671  -5.78543  -5.78519
 Alpha  occ. eigenvalues --   -5.78389  -5.78298  -5.78223  -5.78136  -5.78076
 Alpha  occ. eigenvalues --   -1.18973  -1.18917  -1.18852  -1.18796  -1.18684
 Alpha  occ. eigenvalues --   -1.18658  -1.18629  -1.18417  -1.18365  -1.17909
 Alpha  occ. eigenvalues --   -0.88590  -0.88434  -0.88272  -0.88102  -0.87629
 Alpha  occ. eigenvalues --   -0.85940  -0.85529  -0.85100  -0.84725  -0.84381
 Alpha  occ. eigenvalues --   -0.80057  -0.79333  -0.78454  -0.77517  -0.76568
 Alpha  occ. eigenvalues --   -0.74935  -0.74882  -0.74771  -0.74639  -0.74004
 Alpha  occ. eigenvalues --   -0.73898  -0.73744  -0.73547  -0.73541  -0.73141
 Alpha  occ. eigenvalues --   -0.72979  -0.72384  -0.71250  -0.69971  -0.69036
 Alpha  occ. eigenvalues --   -0.65771  -0.64793  -0.63909  -0.63536  -0.63059
 Alpha  occ. eigenvalues --   -0.62604  -0.62225  -0.62160  -0.61983  -0.61201
 Alpha  occ. eigenvalues --   -0.59112  -0.59014  -0.58623  -0.58497  -0.58090
 Alpha  occ. eigenvalues --   -0.58009  -0.57888  -0.57729  -0.57490  -0.57249
 Alpha  occ. eigenvalues --   -0.55728  -0.55267  -0.55002  -0.54801  -0.54598
 Alpha  occ. eigenvalues --   -0.53213  -0.52579  -0.52319  -0.52152  -0.51672
 Alpha  occ. eigenvalues --   -0.51114  -0.50627  -0.50468  -0.49863  -0.49364
 Alpha  occ. eigenvalues --   -0.49279  -0.48944  -0.48691  -0.48194  -0.47960
 Alpha  occ. eigenvalues --   -0.47689  -0.47581  -0.47361  -0.47329  -0.47239
 Alpha  occ. eigenvalues --   -0.47007  -0.46961  -0.46752  -0.46672  -0.46638
 Alpha  occ. eigenvalues --   -0.46593  -0.46452  -0.46344  -0.46280  -0.45913
 Alpha  occ. eigenvalues --   -0.45712  -0.45162  -0.45001  -0.44915  -0.44561
 Alpha  occ. eigenvalues --   -0.44411  -0.44154  -0.43960  -0.43914  -0.43815
 Alpha  occ. eigenvalues --   -0.43053  -0.42682  -0.41960  -0.41797  -0.41402
 Alpha  occ. eigenvalues --   -0.41196  -0.41027  -0.40701  -0.40600  -0.40438
 Alpha  occ. eigenvalues --   -0.39876  -0.39622  -0.39552  -0.39455  -0.39378
 Alpha  occ. eigenvalues --   -0.39284  -0.39001  -0.38972  -0.38766  -0.38664
 Alpha  occ. eigenvalues --   -0.38236  -0.38150  -0.37904  -0.37867  -0.37709
 Alpha  occ. eigenvalues --   -0.37498  -0.37269  -0.37131  -0.37084  -0.36734
 Alpha  occ. eigenvalues --   -0.36380  -0.35749  -0.35248  -0.34984  -0.34765
 Alpha  occ. eigenvalues --   -0.34638  -0.34345  -0.33326  -0.32569  -0.31254
 Alpha  occ. eigenvalues --   -0.30092  -0.28925  -0.28836  -0.28710  -0.28619
 Alpha  occ. eigenvalues --   -0.28339  -0.28166  -0.28101  -0.28013  -0.27980
 Alpha  occ. eigenvalues --   -0.27899  -0.27003  -0.25812  -0.24331  -0.23152
 Alpha  occ. eigenvalues --   -0.22122
 Alpha virt. eigenvalues --   -0.06691  -0.05478  -0.04227  -0.02586  -0.00851
 Alpha virt. eigenvalues --   -0.00342  -0.00149  -0.00076   0.00053   0.00159
 Alpha virt. eigenvalues --    0.00812   0.01804   0.02981   0.03559   0.03639

  Beta  occ. eigenvalues --  -88.16934 -88.16878 -88.16803 -88.16698 -88.16656
  Beta  occ. eigenvalues --  -24.35924 -24.35873 -24.35771 -24.35706 -24.35638
  Beta  occ. eigenvalues --  -24.35635 -24.35541 -24.35317 -24.34916 -24.34720
  Beta  occ. eigenvalues --  -10.04927 -10.04873 -10.04781 -10.04721 -10.04703
  Beta  occ. eigenvalues --  -10.04683 -10.04499 -10.04422 -10.04419 -10.04353
  Beta  occ. eigenvalues --  -10.00641 -10.00617 -10.00539 -10.00524 -10.00452
  Beta  occ. eigenvalues --  -10.00345 -10.00260 -10.00204 -10.00094  -9.99577
  Beta  occ. eigenvalues --   -9.99535  -9.99422  -9.99369  -9.99303  -9.99262
  Beta  occ. eigenvalues --   -9.99252  -9.99161  -9.99111  -9.99102  -9.97787
  Beta  occ. eigenvalues --   -9.97637  -9.97598  -9.97537  -9.97516  -9.97470
  Beta  occ. eigenvalues --   -9.97468  -9.97455  -9.97450  -9.97388  -9.97344
  Beta  occ. eigenvalues --   -9.97329  -9.97303  -9.97272  -9.97242  -9.97232
  Beta  occ. eigenvalues --   -9.97127  -9.97103  -9.97043  -9.96936  -9.96563
  Beta  occ. eigenvalues --   -7.77175  -7.77084  -7.77009  -7.76896  -7.76858
  Beta  occ. eigenvalues --   -5.79279  -5.79202  -5.79127  -5.79005  -5.78975
  Beta  occ. eigenvalues --   -5.78843  -5.78746  -5.78671  -5.78543  -5.78519
  Beta  occ. eigenvalues --   -5.78389  -5.78298  -5.78223  -5.78136  -5.78076
  Beta  occ. eigenvalues --   -1.18973  -1.18917  -1.18852  -1.18796  -1.18684
  Beta  occ. eigenvalues --   -1.18658  -1.18629  -1.18417  -1.18365  -1.17909
  Beta  occ. eigenvalues --   -0.88590  -0.88434  -0.88272  -0.88102  -0.87629
  Beta  occ. eigenvalues --   -0.85940  -0.85529  -0.85100  -0.84725  -0.84381
  Beta  occ. eigenvalues --   -0.80057  -0.79333  -0.78454  -0.77517  -0.76568
  Beta  occ. eigenvalues --   -0.74935  -0.74882  -0.74771  -0.74639  -0.74004
  Beta  occ. eigenvalues --   -0.73898  -0.73744  -0.73547  -0.73541  -0.73141
  Beta  occ. eigenvalues --   -0.72979  -0.72384  -0.71250  -0.69971  -0.69036
  Beta  occ. eigenvalues --   -0.65771  -0.64793  -0.63909  -0.63536  -0.63059
  Beta  occ. eigenvalues --   -0.62604  -0.62225  -0.62160  -0.61983  -0.61201
  Beta  occ. eigenvalues --   -0.59112  -0.59014  -0.58623  -0.58497  -0.58090
  Beta  occ. eigenvalues --   -0.58009  -0.57888  -0.57729  -0.57490  -0.57249
  Beta  occ. eigenvalues --   -0.55728  -0.55267  -0.55002  -0.54801  -0.54598
  Beta  occ. eigenvalues --   -0.53213  -0.52579  -0.52319  -0.52152  -0.51672
  Beta  occ. eigenvalues --   -0.51114  -0.50627  -0.50468  -0.49863  -0.49364
  Beta  occ. eigenvalues --   -0.49279  -0.48944  -0.48691  -0.48194  -0.47960
  Beta  occ. eigenvalues --   -0.47689  -0.47581  -0.47361  -0.47329  -0.47239
  Beta  occ. eigenvalues --   -0.47007  -0.46961  -0.46752  -0.46672  -0.46638
  Beta  occ. eigenvalues --   -0.46593  -0.46452  -0.46344  -0.46280  -0.45913
  Beta  occ. eigenvalues --   -0.45712  -0.45162  -0.45001  -0.44915  -0.44561
  Beta  occ. eigenvalues --   -0.44411  -0.44154  -0.43960  -0.43914  -0.43815
  Beta  occ. eigenvalues --   -0.43053  -0.42682  -0.41960  -0.41797  -0.41402
  Beta  occ. eigenvalues --   -0.41196  -0.41027  -0.40701  -0.40600  -0.40438
  Beta  occ. eigenvalues --   -0.39876  -0.39622  -0.39552  -0.39455  -0.39378
  Beta  occ. eigenvalues --   -0.39284  -0.39001  -0.38972  -0.38766  -0.38664
  Beta  occ. eigenvalues --   -0.38236  -0.38150  -0.37904  -0.37867  -0.37709
  Beta  occ. eigenvalues --   -0.37498  -0.37269  -0.37131  -0.37084  -0.36734
  Beta  occ. eigenvalues --   -0.36380  -0.35749  -0.35248  -0.34984  -0.34765
  Beta  occ. eigenvalues --   -0.34638  -0.34345  -0.33326  -0.32569  -0.31254
  Beta  occ. eigenvalues --   -0.30092  -0.28925  -0.28836  -0.28710  -0.28619
  Beta  occ. eigenvalues --   -0.28339  -0.28166  -0.28101  -0.28013  -0.27980
  Beta  occ. eigenvalues --   -0.27899  -0.27003  -0.25812  -0.24331  -0.23152
  Beta  occ. eigenvalues --   -0.22122
  Beta virt. eigenvalues --   -0.06691  -0.05478  -0.04227  -0.02586  -0.00851
  Beta virt. eigenvalues --   -0.00342  -0.00149  -0.00076   0.00053   0.00159
  Beta virt. eigenvalues --    0.00812   0.01804   0.02981   0.03559   0.03639

 Mulliken charges and spin densities:
               1          2
     1  C    0.036621   0.000000
     2  C    0.046264  -0.000000
     3  C   -0.019149   0.000000
     4  C    0.058776  -0.000000
     5  C    0.057949  -0.000000
     6  F   -0.128115  -0.000000
     7  C    0.038734  -0.000000
     8  C   -0.139743  -0.000000
     9  C    0.113214  -0.000000
    10  F   -0.123244  -0.000000
    11  C    0.048729   0.000000
    12  C   -0.141745  -0.000000
    13  S    0.158743   0.000000
    14  C    0.103687   0.000000
    15  C    0.002235  -0.000000
    16  C    0.025080  -0.000000
    17  C    0.033324  -0.000000
    18  C    0.091714   0.000000
    19  F   -0.112308   0.000000
    20  C   -0.001783   0.000000
    21  C   -0.175760   0.000000
    22  C    0.135035   0.000000
    23  F   -0.108270  -0.000000
    24  C    0.033009  -0.000000
    25  C   -0.137127   0.000000
    26  S    0.153939  -0.000000
    27  C    0.111733  -0.000000
    28  C    0.009913  -0.000000
    29  C   -0.009305   0.000000
    30  C    0.072980  -0.000000
    31  C    0.067447   0.000000
    32  F   -0.125619  -0.000000
    33  C    0.009521  -0.000000
    34  C   -0.140541  -0.000000
    35  C    0.110830  -0.000000
    36  F   -0.122293   0.000000
    37  C    0.049002   0.000000
    38  C   -0.139485  -0.000000
    39  S    0.156251   0.000000
    40  C    0.109070   0.000000
    41  C    0.011006   0.000000
    42  C   -0.007299   0.000000
    43  C    0.075591   0.000000
    44  C    0.062759  -0.000000
    45  F   -0.124726   0.000000
    46  C    0.009842   0.000000
    47  C   -0.141481   0.000000
    48  C    0.109973   0.000000
    49  F   -0.122628  -0.000000
    50  C    0.049222   0.000000
    51  C   -0.138880   0.000000
    52  S    0.156749   0.000000
    53  C    0.106831  -0.000000
    54  C    0.010817  -0.000000
    55  C   -0.007554   0.000000
    56  C    0.084026  -0.000000
    57  C    0.065546  -0.000000
    58  F   -0.126142   0.000000
    59  C    0.008176   0.000000
    60  C   -0.154523   0.000000
    61  C    0.090838   0.000000
    62  F   -0.124154  -0.000000
    63  C    0.081111  -0.000000
    64  C   -0.120060   0.000000
    65  S    0.170108   0.000000
    66  H   -0.013491   0.000000
    67  H   -0.016473   0.000000
    68  H   -0.015682   0.000000
    69  H   -0.003753   0.000000
    70  H   -0.008589  -0.000000
    71  H   -0.025490   0.000000
    72  H   -0.016704   0.000000
    73  H   -0.002204   0.000000
    74  H   -0.005384  -0.000000
    75  H   -0.018282   0.000000
    76  H   -0.014945  -0.000000
    77  H   -0.013314   0.000000
    78  H   -0.007273  -0.000000
    79  H   -0.027247  -0.000000
    80  H   -0.015320   0.000000
    81  H   -0.002220   0.000000
    82  H   -0.007489  -0.000000
    83  H   -0.027713  -0.000000
    84  H   -0.015168   0.000000
    85  H   -0.002865   0.000000
    86  H   -0.002578  -0.000000
    87  H    0.027720  -0.000000
 Sum of Mulliken charges =  -0.00000  -0.00000

 Dipole moment (field-independent basis, Debye):
    X=              0.8393    Y=              1.7795    Z=              0.1054  Tot=              1.9703
 Quadrupole moment (field-independent basis, Debye-Ang):
   XX=           -289.7402   YY=           -373.7360   ZZ=           -406.4285
   XY=            -14.5173   XZ=             -6.0857   YZ=             -0.7240

 Normal termination of Gaussian 16 at Sat Jul 25 02:37:39 2020.
