 Gaussian 16, Revision A.03,
 Gaussian 16:  EM64L-G16RevA.03 25-Dec-2016

 ---------------------------------------------------------------
 #P uLC-wPBE/cc-pVDZ iop(3/107=0448700000, 3/108=0448700000) opt
 ---------------------------------------------------------------

 -------------
 H35 C39 N3 O6
 -------------
 Symbolic Z-matrix:
 Charge =  0 Multiplicity = 1

 SCF Done:  E(ULC-wPBE) =  -2121.27107417     A.U. after   17 cycles
 SCF Done:  E(ULC-wPBE) =  -2121.35321129     A.U. after   14 cycles
 SCF Done:  E(ULC-wPBE) =  -2121.42127269     A.U. after   16 cycles
 SCF Done:  E(ULC-wPBE) =  -2121.43718357     A.U. after   14 cycles
 SCF Done:  E(ULC-wPBE) =  -2121.44022822     A.U. after   16 cycles
 SCF Done:  E(ULC-wPBE) =  -2121.44079701     A.U. after   14 cycles
 SCF Done:  E(ULC-wPBE) =  -2121.44226190     A.U. after   13 cycles
 SCF Done:  E(ULC-wPBE) =  -2121.44185493     A.U. after   17 cycles
 SCF Done:  E(ULC-wPBE) =  -2121.44334799     A.U. after   14 cycles
 SCF Done:  E(ULC-wPBE) =  -2121.44423127     A.U. after   14 cycles
 SCF Done:  E(ULC-wPBE) =  -2121.44455032     A.U. after   13 cycles
 SCF Done:  E(ULC-wPBE) =  -2121.44462298     A.U. after   12 cycles
 SCF Done:  E(ULC-wPBE) =  -2121.44466476     A.U. after   11 cycles
 SCF Done:  E(ULC-wPBE) =  -2121.44468006     A.U. after   11 cycles
 SCF Done:  E(ULC-wPBE) =  -2121.44468307     A.U. after   10 cycles
 SCF Done:  E(ULC-wPBE) =  -2121.44468372     A.U. after    8 cycles
 SCF Done:  E(ULC-wPBE) =  -2121.44468381     A.U. after    7 cycles
 SCF Done:  E(ULC-wPBE) =  -2121.44468388     A.U. after    6 cycles
 SCF Done:  E(ULC-wPBE) =  -2121.44468380     A.U. after    7 cycles
 Optimization completed.
    -- Stationary point found.

                         Standard orientation:
 ---------------------------------------------------------------------
 Center     Atomic      Atomic             Coordinates (Angstroms)
 Number     Number       Type             X           Y           Z
 ---------------------------------------------------------------------
      1          6           0      -11.982841    0.675735    0.030430
      2          6           0      -11.394590   -0.512015    0.447217
      3          6           0      -10.013828   -0.606491    0.441520
      4          8           0       -9.314398   -1.673509    0.874600
      5          6           0      -10.030325   -2.806155    1.289325
      6          6           0       -9.268118    0.496132   -0.015351
      7          7           0       -9.842329    1.629593   -0.380295
      8          6           0      -11.170707    1.719204   -0.359291
      9          6           0       -7.782895    0.457711   -0.042000
     10          6           0       -7.063054    1.422599    0.640017
     11          6           0       -5.675844    1.433129    0.635891
     12          6           0       -4.981857    0.464785   -0.076189
     13          6           0       -5.694531   -0.497206   -0.793006
     14          6           0       -7.082674   -0.499785   -0.787265
     15          8           0       -7.833094   -1.362539   -1.505330
     16          6           0       -7.180470   -2.359426   -2.245450
     17          6           0       -3.500715    0.448110   -0.090672
     18          6           0       -2.766465    1.623352   -0.235294
     19          6           0       -1.384241    1.565899   -0.246070
     20          8           0       -0.577816    2.639479   -0.384955
     21          6           0       -1.174132    3.908381   -0.469344
     22          6           0       -0.757748    0.314432   -0.110510
     23          7           0       -1.462486   -0.795671    0.036514
     24          6           0       -2.788793   -0.733438    0.046058
     25          6           0        0.722905    0.190983   -0.137512
     26          6           0        1.466285    0.678230   -1.208523
     27          6           0        2.839434    0.525320   -1.264119
     28          6           0        3.519967   -0.107746   -0.225641
     29          6           0        2.785032   -0.579203    0.855489
     30          6           0        1.405114   -0.437510    0.903499
     31          8           0        0.726458   -0.869930    2.005077
     32          6           0        0.536058   -2.268883    2.063370
     33          6           0        4.992076   -0.264804   -0.267371
     34          6           0        5.776214   -0.054169    0.866881
     35          6           0        7.147352   -0.210182    0.784088
     36          8           0        7.996029   -0.083019    1.823126
     37          6           0        7.466968    0.304588    3.062827
     38          6           0        7.713170   -0.549213   -0.458332
     39          7           0        6.962010   -0.780889   -1.520728
     40          6           0        5.642783   -0.643560   -1.430211
     41          6           0        9.179939   -0.729088   -0.614502
     42          6           0        9.670629   -1.932016   -1.093130
     43          6           0       11.033104   -2.142402   -1.261301
     44          6           0       11.912516   -1.121087   -0.954871
     45          6           0       11.443619    0.105678   -0.500467
     46          6           0       10.078929    0.309228   -0.337731
     47          8           0        9.532773    1.484079    0.048663
     48          6           0       10.392736    2.544439    0.365138
     49          1           0      -13.066240    0.783136    0.023771
     50          1           0      -12.015853   -1.339701    0.781405
     51          1           0      -10.670035   -2.588228    2.157500
     52          1           0       -9.285251   -3.552694    1.577841
     53          1           0      -10.650109   -3.212897    0.476580
     54          1           0      -11.594795    2.674268   -0.673553
     55          1           0       -7.615764    2.180378    1.193357
     56          1           0       -5.134916    2.183021    1.211046
     57          1           0       -5.144055   -1.223154   -1.385918
     58          1           0       -6.533120   -1.930598   -3.024347
     59          1           0       -7.966312   -2.950179   -2.724623
     60          1           0       -6.580400   -3.016877   -1.599385
     61          1           0       -3.291306    2.568223   -0.356114
     62          1           0       -1.768293    4.135496    0.427781
     63          1           0       -1.813742    3.998634   -1.359596
     64          1           0       -0.353944    4.627303   -0.545382
     65          1           0       -3.315558   -1.678496    0.189992
     66          1           0        0.949274    1.190136   -2.018213
     67          1           0        3.395362    0.925690   -2.110644
     68          1           0        3.279824   -1.075091    1.689950
     69          1           0       -0.091382   -2.601529    1.226584
     70          1           0        1.496240   -2.806303    2.047789
     71          1           0        0.026687   -2.478127    3.009426
     72          1           0        5.298983    0.239166    1.799277
     73          1           0        8.312791    0.363415    3.753391
     74          1           0        6.745135   -0.431905    3.446235
     75          1           0        6.980743    1.289608    3.005451
     76          1           0        5.072181   -0.863355   -2.334335
     77          1           0        8.955349   -2.716241   -1.337475
     78          1           0       11.399933   -3.098895   -1.629646
     79          1           0       12.985655   -1.265743   -1.077343
     80          1           0       12.152822    0.901325   -0.286810
     81          1           0       10.998967    2.850301   -0.500410
     82          1           0        9.753659    3.381045    0.662176
     83          1           0       11.061465    2.289816    1.200755
 ---------------------------------------------------------------------

 The electronic state is 1-A.
 Alpha  occ. eigenvalues --  -19.04287 -19.04110 -19.03540 -19.03489 -19.02800
 Alpha  occ. eigenvalues --  -19.00750 -14.23832 -14.23562 -14.22943 -10.21559
 Alpha  occ. eigenvalues --  -10.21432 -10.21027 -10.20779 -10.20565 -10.20485
 Alpha  occ. eigenvalues --  -10.20127 -10.20017 -10.19968 -10.19663 -10.19475
 Alpha  occ. eigenvalues --  -10.18553 -10.18501 -10.17744 -10.17656 -10.17073
 Alpha  occ. eigenvalues --  -10.16951 -10.16460 -10.16322 -10.16266 -10.16216
 Alpha  occ. eigenvalues --  -10.16114 -10.15878 -10.15797 -10.15591 -10.15410
 Alpha  occ. eigenvalues --  -10.14940 -10.14920 -10.14851 -10.14687 -10.14525
 Alpha  occ. eigenvalues --  -10.14313 -10.14168 -10.14125 -10.14096 -10.14088
 Alpha  occ. eigenvalues --  -10.13921 -10.13694 -10.13098  -1.24285  -1.24206
 Alpha  occ. eigenvalues --   -1.23637  -1.23293  -1.22557  -1.20747  -1.11750
 Alpha  occ. eigenvalues --   -1.11549  -1.11016  -1.04135  -1.03594  -1.02312
 Alpha  occ. eigenvalues --   -0.99046  -0.97893  -0.97036  -0.95741  -0.95191
 Alpha  occ. eigenvalues --   -0.94547  -0.92258  -0.91850  -0.91123  -0.90977
 Alpha  occ. eigenvalues --   -0.90407  -0.88993  -0.87188  -0.86784  -0.86364
 Alpha  occ. eigenvalues --   -0.85699  -0.84871  -0.83717  -0.81719  -0.79687
 Alpha  occ. eigenvalues --   -0.78072  -0.76828  -0.76556  -0.76295  -0.75422
 Alpha  occ. eigenvalues --   -0.74338  -0.73818  -0.73537  -0.73210  -0.72097
 Alpha  occ. eigenvalues --   -0.69582  -0.68647  -0.68413  -0.67197  -0.66417
 Alpha  occ. eigenvalues --   -0.65911  -0.65418  -0.65034  -0.64846  -0.63666
 Alpha  occ. eigenvalues --   -0.63258  -0.62992  -0.62672  -0.62523  -0.62235
 Alpha  occ. eigenvalues --   -0.61903  -0.61247  -0.61139  -0.61079  -0.60780
 Alpha  occ. eigenvalues --   -0.60491  -0.59969  -0.59098  -0.58834  -0.57990
 Alpha  occ. eigenvalues --   -0.57312  -0.56964  -0.56851  -0.56510  -0.56293
 Alpha  occ. eigenvalues --   -0.55979  -0.55549  -0.55289  -0.55002  -0.54635
 Alpha  occ. eigenvalues --   -0.54431  -0.54270  -0.54019  -0.53624  -0.53128
 Alpha  occ. eigenvalues --   -0.52765  -0.51837  -0.51381  -0.51317  -0.50810
 Alpha  occ. eigenvalues --   -0.50305  -0.49725  -0.49262  -0.48805  -0.48256
 Alpha  occ. eigenvalues --   -0.48175  -0.47356  -0.47182  -0.47159  -0.46737
 Alpha  occ. eigenvalues --   -0.46527  -0.46119  -0.45864  -0.45526  -0.45236
 Alpha  occ. eigenvalues --   -0.44575  -0.44209  -0.43812  -0.41088  -0.40227
 Alpha  occ. eigenvalues --   -0.39523  -0.38811  -0.37702  -0.37643  -0.36994
 Alpha  occ. eigenvalues --   -0.36028  -0.35820  -0.35511  -0.34341  -0.33578
 Alpha  occ. eigenvalues --   -0.33147  -0.32355  -0.31201  -0.30196
 Alpha virt. eigenvalues --    0.02991   0.04886   0.06664   0.07855   0.08363
 Alpha virt. eigenvalues --    0.08723   0.08876   0.09408   0.09551   0.10774
 Alpha virt. eigenvalues --    0.11855   0.13292   0.15167   0.15592   0.15643

  Beta  occ. eigenvalues --  -19.04287 -19.04110 -19.03540 -19.03489 -19.02800
  Beta  occ. eigenvalues --  -19.00750 -14.23832 -14.23562 -14.22943 -10.21559
  Beta  occ. eigenvalues --  -10.21432 -10.21027 -10.20779 -10.20565 -10.20485
  Beta  occ. eigenvalues --  -10.20127 -10.20017 -10.19968 -10.19663 -10.19475
  Beta  occ. eigenvalues --  -10.18553 -10.18501 -10.17744 -10.17656 -10.17073
  Beta  occ. eigenvalues --  -10.16951 -10.16460 -10.16322 -10.16266 -10.16216
  Beta  occ. eigenvalues --  -10.16114 -10.15878 -10.15797 -10.15591 -10.15410
  Beta  occ. eigenvalues --  -10.14940 -10.14920 -10.14851 -10.14687 -10.14525
  Beta  occ. eigenvalues --  -10.14313 -10.14168 -10.14125 -10.14096 -10.14088
  Beta  occ. eigenvalues --  -10.13921 -10.13694 -10.13098  -1.24285  -1.24206
  Beta  occ. eigenvalues --   -1.23637  -1.23293  -1.22557  -1.20747  -1.11750
  Beta  occ. eigenvalues --   -1.11549  -1.11016  -1.04135  -1.03594  -1.02312
  Beta  occ. eigenvalues --   -0.99046  -0.97893  -0.97036  -0.95741  -0.95191
  Beta  occ. eigenvalues --   -0.94547  -0.92258  -0.91850  -0.91123  -0.90977
  Beta  occ. eigenvalues --   -0.90407  -0.88993  -0.87188  -0.86784  -0.86364
  Beta  occ. eigenvalues --   -0.85699  -0.84871  -0.83717  -0.81719  -0.79687
  Beta  occ. eigenvalues --   -0.78072  -0.76828  -0.76556  -0.76295  -0.75422
  Beta  occ. eigenvalues --   -0.74338  -0.73818  -0.73537  -0.73210  -0.72097
  Beta  occ. eigenvalues --   -0.69582  -0.68647  -0.68413  -0.67197  -0.66417
  Beta  occ. eigenvalues --   -0.65911  -0.65418  -0.65034  -0.64846  -0.63666
  Beta  occ. eigenvalues --   -0.63258  -0.62992  -0.62672  -0.62523  -0.62235
  Beta  occ. eigenvalues --   -0.61903  -0.61247  -0.61139  -0.61079  -0.60780
  Beta  occ. eigenvalues --   -0.60491  -0.59969  -0.59098  -0.58834  -0.57990
  Beta  occ. eigenvalues --   -0.57312  -0.56964  -0.56851  -0.56510  -0.56293
  Beta  occ. eigenvalues --   -0.55979  -0.55549  -0.55289  -0.55002  -0.54635
  Beta  occ. eigenvalues --   -0.54431  -0.54270  -0.54019  -0.53624  -0.53128
  Beta  occ. eigenvalues --   -0.52765  -0.51837  -0.51381  -0.51317  -0.50810
  Beta  occ. eigenvalues --   -0.50305  -0.49725  -0.49262  -0.48805  -0.48256
  Beta  occ. eigenvalues --   -0.48175  -0.47356  -0.47182  -0.47159  -0.46737
  Beta  occ. eigenvalues --   -0.46527  -0.46119  -0.45864  -0.45526  -0.45236
  Beta  occ. eigenvalues --   -0.44575  -0.44209  -0.43812  -0.41088  -0.40227
  Beta  occ. eigenvalues --   -0.39523  -0.38811  -0.37702  -0.37643  -0.36994
  Beta  occ. eigenvalues --   -0.36028  -0.35820  -0.35511  -0.34341  -0.33578
  Beta  occ. eigenvalues --   -0.33147  -0.32355  -0.31201  -0.30196
  Beta virt. eigenvalues --    0.02991   0.04886   0.06664   0.07855   0.08363
  Beta virt. eigenvalues --    0.08723   0.08876   0.09408   0.09551   0.10774
  Beta virt. eigenvalues --    0.11855   0.13292   0.15167   0.15592   0.15643

 Mulliken charges and spin densities:
               1          2
     1  C   -0.059956  -0.000000
     2  C   -0.017660  -0.000000
     3  C    0.132696   0.000000
     4  O   -0.245905  -0.000000
     5  C    0.034112   0.000000
     6  C    0.014366   0.000000
     7  N   -0.183395  -0.000000
     8  C    0.064361   0.000000
     9  C   -0.021299  -0.000000
    10  C    0.052367   0.000000
    11  C   -0.021220  -0.000000
    12  C   -0.011237   0.000000
    13  C   -0.057158   0.000000
    14  C    0.146334  -0.000000
    15  O   -0.253651   0.000000
    16  C    0.038361   0.000000
    17  C   -0.085233  -0.000000
    18  C    0.013196   0.000000
    19  C    0.122464  -0.000000
    20  O   -0.252735   0.000000
    21  C    0.034916  -0.000000
    22  C    0.039545  -0.000000
    23  N   -0.184460   0.000000
    24  C    0.079250   0.000000
    25  C   -0.013801  -0.000000
    26  C    0.047188   0.000000
    27  C   -0.011544  -0.000000
    28  C    0.000374   0.000000
    29  C    0.025630  -0.000000
    30  C    0.035740  -0.000000
    31  O   -0.272017  -0.000000
    32  C    0.059061  -0.000000
    33  C   -0.080441   0.000000
    34  C    0.003393  -0.000000
    35  C    0.140746  -0.000000
    36  O   -0.247148   0.000000
    37  C    0.036578  -0.000000
    38  C    0.021304  -0.000000
    39  N   -0.178123  -0.000000
    40  C    0.068986   0.000000
    41  C   -0.032048   0.000000
    42  C    0.037761   0.000000
    43  C   -0.010911  -0.000000
    44  C    0.002168  -0.000000
    45  C   -0.069604   0.000000
    46  C    0.134403  -0.000000
    47  O   -0.253774   0.000000
    48  C    0.037859  -0.000000
    49  H    0.016294  -0.000000
    50  H    0.020680   0.000000
    51  H    0.051938   0.000000
    52  H    0.067212   0.000000
    53  H    0.051435  -0.000000
    54  H    0.019669  -0.000000
    55  H    0.002303   0.000000
    56  H   -0.001705   0.000000
    57  H    0.007542  -0.000000
    58  H    0.055139  -0.000000
    59  H    0.062569  -0.000000
    60  H    0.050761   0.000000
    61  H    0.017339   0.000000
    62  H    0.054236   0.000000
    63  H    0.055012   0.000000
    64  H    0.069744  -0.000000
    65  H    0.013964   0.000000
    66  H    0.001871   0.000000
    67  H    0.003554   0.000000
    68  H    0.001039   0.000000
    69  H    0.051570   0.000000
    70  H    0.031356  -0.000000
    71  H    0.050692  -0.000000
    72  H    0.015711   0.000000
    73  H    0.065147  -0.000000
    74  H    0.050574  -0.000000
    75  H    0.053060   0.000000
    76  H    0.015966   0.000000
    77  H    0.001363  -0.000000
    78  H    0.004989   0.000000
    79  H    0.007880  -0.000000
    80  H    0.009636  -0.000000
    81  H    0.051266  -0.000000
    82  H    0.061539   0.000000
    83  H    0.048820   0.000000
 Sum of Mulliken charges =  -0.00000  -0.00000

 Dipole moment (field-independent basis, Debye):
    X=             -3.7170    Y=              0.2226    Z=              2.5805  Tot=              4.5304
 Quadrupole moment (field-independent basis, Debye-Ang):
   XX=           -217.3516   YY=           -243.6816   ZZ=           -267.8285
   XY=             44.9556   XZ=             16.5965   YZ=              0.7319

 Normal termination of Gaussian 16 at Thu Jul 23 18:28:54 2020.
