 Gaussian 16, Revision A.03,
 Gaussian 16:  EM64L-G16RevA.03 25-Dec-2016

 ---------------------------------------------------------------
 #P uLC-wPBE/cc-pVDZ iop(3/107=0410800000, 3/108=0410800000) opt
 ---------------------------------------------------------------

 ------------
 H7 C11 N1 F2
 ------------
 Symbolic Z-matrix:
 Charge =  0 Multiplicity = 1

 SCF Done:  E(ULC-wPBE) =  -677.345299039     A.U. after   17 cycles
 SCF Done:  E(ULC-wPBE) =  -677.379270898     A.U. after   14 cycles
 SCF Done:  E(ULC-wPBE) =  -677.385805552     A.U. after   14 cycles
 SCF Done:  E(ULC-wPBE) =  -677.386030036     A.U. after   13 cycles
 SCF Done:  E(ULC-wPBE) =  -677.386091831     A.U. after   12 cycles
 SCF Done:  E(ULC-wPBE) =  -677.386108583     A.U. after   11 cycles
 SCF Done:  E(ULC-wPBE) =  -677.386115253     A.U. after   12 cycles
 SCF Done:  E(ULC-wPBE) =  -677.386116572     A.U. after    9 cycles
 SCF Done:  E(ULC-wPBE) =  -677.386116914     A.U. after    9 cycles
 Optimization completed.
    -- Stationary point found.

                         Standard orientation:
 ---------------------------------------------------------------------
 Center     Atomic      Atomic             Coordinates (Angstroms)
 Number     Number       Type             X           Y           Z
 ---------------------------------------------------------------------
      1          6           0       -3.476339   -0.357598   -0.216922
      2          6           0       -2.951886    0.806069    0.321097
      3          6           0       -1.578997    0.939149    0.342739
      4          9           0       -1.038962    2.051646    0.860805
      5          6           0       -0.753275   -0.063016   -0.160928
      6          7           0       -1.274652   -1.176228   -0.673183
      7          6           0       -2.594074   -1.315330   -0.698459
      8          6           0        0.725024    0.075095   -0.151484
      9          6           0        1.357731    1.219909   -0.633915
     10          6           0        2.740486    1.323497   -0.655438
     11          6           0        3.518454    0.275821   -0.179673
     12          6           0        2.913373   -0.868552    0.317575
     13          6           0        1.532809   -0.952091    0.325354
     14          9           0        0.968517   -2.052721    0.834347
     15          1           0       -4.553073   -0.519984   -0.261784
     16          1           0       -3.576747    1.602636    0.724964
     17          1           0       -2.969113   -2.247055   -1.129934
     18          1           0        0.746121    2.041481   -1.007159
     19          1           0        3.211723    2.225474   -1.046143
     20          1           0        4.606689    0.348743   -0.191821
     21          1           0        3.491129   -1.705736    0.708122
 ---------------------------------------------------------------------

 The electronic state is 1-A.
 Alpha  occ. eigenvalues --  -24.51790 -24.50085 -14.22978 -10.22330 -10.21352
 Alpha  occ. eigenvalues --  -10.18290 -10.16704 -10.15838 -10.15039 -10.14632
 Alpha  occ. eigenvalues --  -10.14152 -10.14131 -10.13463 -10.13245  -1.36539
 Alpha  occ. eigenvalues --   -1.34981  -1.11407  -1.02855  -0.97223  -0.94794
 Alpha  occ. eigenvalues --   -0.90381  -0.89306  -0.80333  -0.78989  -0.76003
 Alpha  occ. eigenvalues --   -0.74550  -0.69112  -0.67739  -0.65577  -0.64403
 Alpha  occ. eigenvalues --   -0.62699  -0.61133  -0.60865  -0.59453  -0.57613
 Alpha  occ. eigenvalues --   -0.56497  -0.54980  -0.53746  -0.53484  -0.52437
 Alpha  occ. eigenvalues --   -0.50537  -0.49655  -0.48774  -0.46297  -0.41284
 Alpha  occ. eigenvalues --   -0.38543  -0.38079  -0.35860  -0.34183
 Alpha virt. eigenvalues --    0.03366   0.06304   0.07966   0.09571   0.15235
 Alpha virt. eigenvalues --    0.16016   0.19636   0.20240   0.21746   0.22636
 Alpha virt. eigenvalues --    0.23477   0.24886   0.26313   0.26975   0.27745

  Beta  occ. eigenvalues --  -24.51790 -24.50085 -14.22978 -10.22330 -10.21352
  Beta  occ. eigenvalues --  -10.18290 -10.16704 -10.15838 -10.15039 -10.14632
  Beta  occ. eigenvalues --  -10.14152 -10.14131 -10.13463 -10.13245  -1.36539
  Beta  occ. eigenvalues --   -1.34981  -1.11407  -1.02855  -0.97223  -0.94794
  Beta  occ. eigenvalues --   -0.90381  -0.89306  -0.80333  -0.78989  -0.76003
  Beta  occ. eigenvalues --   -0.74550  -0.69112  -0.67739  -0.65577  -0.64403
  Beta  occ. eigenvalues --   -0.62699  -0.61133  -0.60865  -0.59453  -0.57613
  Beta  occ. eigenvalues --   -0.56497  -0.54980  -0.53746  -0.53484  -0.52437
  Beta  occ. eigenvalues --   -0.50537  -0.49655  -0.48774  -0.46297  -0.41284
  Beta  occ. eigenvalues --   -0.38543  -0.38079  -0.35860  -0.34183
  Beta virt. eigenvalues --    0.03366   0.06304   0.07966   0.09571   0.15235
  Beta virt. eigenvalues --    0.16016   0.19636   0.20240   0.21746   0.22636
  Beta virt. eigenvalues --    0.23477   0.24886   0.26313   0.26975   0.27745

 Mulliken charges and spin densities:
               1          2
     1  C   -0.051085  -0.000000
     2  C    0.042034   0.000000
     3  C    0.111964   0.000000
     4  F   -0.126689  -0.000000
     5  C    0.011665  -0.000000
     6  N   -0.171521  -0.000000
     7  C    0.074065   0.000000
     8  C   -0.064788  -0.000000
     9  C    0.031063   0.000000
    10  C    0.000682   0.000000
    11  C    0.012257  -0.000000
    12  C   -0.015471  -0.000000
    13  C    0.123879   0.000000
    14  F   -0.117386  -0.000000
    15  H    0.022368  -0.000000
    16  H    0.032937   0.000000
    17  H    0.027523  -0.000000
    18  H    0.007955  -0.000000
    19  H    0.009900  -0.000000
    20  H    0.015605   0.000000
    21  H    0.023043   0.000000
 Sum of Mulliken charges =  -0.00000   0.00000

 Dipole moment (field-independent basis, Debye):
    X=             -1.0567    Y=              1.3191    Z=             -0.2370  Tot=              1.7067
 Quadrupole moment (field-independent basis, Debye-Ang):
   XX=            -57.9977   YY=            -77.7831   ZZ=            -80.3515
   XY=              0.5547   XZ=             -0.1079   YZ=             -1.8281

 Normal termination of Gaussian 16 at Fri Jul 24 14:53:37 2020.
