 Gaussian 16, Revision A.03,
 Gaussian 16:  EM64L-G16RevA.03 25-Dec-2016

 ---------------------------------------------------------------
 #P uLC-wPBE/cc-pVDZ iop(3/107=0403700000, 3/108=0403700000) opt
 ---------------------------------------------------------------

 ----------------
 H11 C27 S3 N3 F6
 ----------------
 Symbolic Z-matrix:
 Charge =  0 Multiplicity = 1

 SCF Done:  E(ULC-wPBE) =  -2991.79951407     A.U. after   16 cycles
 SCF Done:  E(ULC-wPBE) =  -2991.85561471     A.U. after   15 cycles
 SCF Done:  E(ULC-wPBE) =  -2991.89037863     A.U. after   16 cycles
 SCF Done:  E(ULC-wPBE) =  -2991.89248286     A.U. after   13 cycles
 SCF Done:  E(ULC-wPBE) =  -2991.89296399     A.U. after   13 cycles
 SCF Done:  E(ULC-wPBE) =  -2991.89332404     A.U. after   14 cycles
 SCF Done:  E(ULC-wPBE) =  -2991.89366163     A.U. after   12 cycles
 SCF Done:  E(ULC-wPBE) =  -2991.89407366     A.U. after   14 cycles
 SCF Done:  E(ULC-wPBE) =  -2991.89424478     A.U. after   13 cycles
 SCF Done:  E(ULC-wPBE) =  -2991.89429433     A.U. after   12 cycles
 SCF Done:  E(ULC-wPBE) =  -2991.89433204     A.U. after   12 cycles
 SCF Done:  E(ULC-wPBE) =  -2991.89434026     A.U. after   12 cycles
 SCF Done:  E(ULC-wPBE) =  -2991.89434431     A.U. after   11 cycles
 SCF Done:  E(ULC-wPBE) =  -2991.89434549     A.U. after    9 cycles
 SCF Done:  E(ULC-wPBE) =  -2991.89434566     A.U. after    8 cycles
 SCF Done:  E(ULC-wPBE) =  -2991.89434587     A.U. after    8 cycles
 SCF Done:  E(ULC-wPBE) =  -2991.89434614     A.U. after    8 cycles
 SCF Done:  E(ULC-wPBE) =  -2991.89434623     A.U. after    8 cycles
 SCF Done:  E(ULC-wPBE) =  -2991.89434626     A.U. after    7 cycles
 SCF Done:  E(ULC-wPBE) =  -2991.89434618     A.U. after    7 cycles
 Optimization completed.
    -- Stationary point found.

                         Standard orientation:
 ---------------------------------------------------------------------
 Center     Atomic      Atomic             Coordinates (Angstroms)
 Number     Number       Type             X           Y           Z
 ---------------------------------------------------------------------
      1          6           0       11.400002   -0.297038   -0.124846
      2          6           0       10.532939   -1.347214    0.138239
      3          6           0        9.182289   -1.078164    0.236955
      4          9           0        8.350044   -2.100460    0.483311
      5          6           0        8.638501    0.197991    0.093953
      6          6           0        9.553444    1.218650   -0.180283
      7          9           0        9.112823    2.459559   -0.367433
      8          6           0       10.913635    0.990863   -0.289157
      9          6           0        7.197650    0.472394    0.236465
     10          7           0        6.727240    1.596621    0.689556
     11          6           0        5.365719    1.595598    0.669575
     12          6           0        4.765794    0.466110    0.192918
     13         16           0        5.985301   -0.665199   -0.244370
     14          6           0        3.329752    0.180188    0.071999
     15          6           0        2.429234    1.222245   -0.144700
     16          6           0        1.083051    0.940639   -0.236761
     17          9           0        0.244285    1.966558   -0.438665
     18          6           0        0.547677   -0.343868   -0.143810
     19          6           0        1.483364   -1.358956    0.076271
     20          9           0        1.069653   -2.613788    0.218626
     21          6           0        2.839777   -1.119360    0.184172
     22          6           0       -0.890081   -0.627744   -0.284671
     23          7           0       -1.352690   -1.761228   -0.723561
     24          6           0       -2.714006   -1.768438   -0.708174
     25          6           0       -3.322654   -0.636169   -0.249524
     26         16           0       -2.112258    0.508878    0.176024
     27          6           0       -4.761092   -0.357367   -0.136256
     28          6           0       -5.654212   -1.401103    0.100782
     29          6           0       -7.003185   -1.127466    0.185451
     30          9           0       -7.834949   -2.154052    0.408893
     31          6           0       -7.545559    0.150881    0.064282
     32          6           0       -6.617773    1.167563   -0.174567
     33          9           0       -7.042946    2.415856   -0.343011
     34          6           0       -5.259147    0.936441   -0.275767
     35          6           0       -8.986374    0.429842    0.197977
     36          7           0       -9.452254    1.542623    0.680749
     37          6           0      -10.817975    1.550774    0.649107
     38          6           0      -11.403725    0.439130    0.133075
     39         16           0      -10.203256   -0.685570   -0.326947
     40          1           0       12.470686   -0.486433   -0.207817
     41          1           0       10.878637   -2.371337    0.269967
     42          1           0       11.567365    1.834245   -0.507063
     43          1           0        4.830997    2.464758    1.051501
     44          1           0        2.756674    2.253191   -0.267017
     45          1           0        3.495985   -1.967166    0.378970
     46          1           0       -3.242179   -2.646223   -1.079229
     47          1           0       -5.318944   -2.426678    0.245463
     48          1           0       -4.608280    1.784484   -0.486894
     49          1           0      -11.353031    2.419786    1.029752
     50          1           0      -12.463031    0.223938    0.018160
 ---------------------------------------------------------------------

 The electronic state is 1-A.
 Alpha  occ. eigenvalues --  -88.34417 -88.34307 -88.33472 -24.52983 -24.52748
 Alpha  occ. eigenvalues --  -24.52455 -24.51757 -24.51584 -24.51349 -14.23162
 Alpha  occ. eigenvalues --  -14.23063 -14.22262 -10.23977 -10.23803 -10.23685
 Alpha  occ. eigenvalues --  -10.23517 -10.23506 -10.23353 -10.21336 -10.21272
 Alpha  occ. eigenvalues --  -10.20349 -10.18153 -10.17811 -10.17785 -10.17657
 Alpha  occ. eigenvalues --  -10.17016 -10.16875 -10.16688 -10.16518 -10.16518
 Alpha  occ. eigenvalues --  -10.16122 -10.15927 -10.15554 -10.15097 -10.14942
 Alpha  occ. eigenvalues --  -10.14799 -10.14746 -10.14617 -10.14606  -7.95248
 Alpha  occ. eigenvalues --   -7.95133  -7.94315  -5.96730  -5.96617  -5.96205
 Alpha  occ. eigenvalues --   -5.96090  -5.95843  -5.95787  -5.95728  -5.95263
 Alpha  occ. eigenvalues --   -5.94928  -1.37812  -1.37552  -1.37300  -1.36946
 Alpha  occ. eigenvalues --   -1.36726  -1.36517  -1.13805  -1.13692  -1.12704
 Alpha  occ. eigenvalues --   -1.05768  -1.05232  -1.04743  -0.99320  -0.98553
 Alpha  occ. eigenvalues --   -0.96070  -0.95797  -0.95305  -0.94489  -0.92284
 Alpha  occ. eigenvalues --   -0.91910  -0.91839  -0.90814  -0.88971  -0.87224
 Alpha  occ. eigenvalues --   -0.82103  -0.80331  -0.79812  -0.78618  -0.78467
 Alpha  occ. eigenvalues --   -0.78120  -0.73862  -0.73815  -0.73575  -0.72551
 Alpha  occ. eigenvalues --   -0.72224  -0.71477  -0.69949  -0.69105  -0.68671
 Alpha  occ. eigenvalues --   -0.67176  -0.66787  -0.66751  -0.65005  -0.64891
 Alpha  occ. eigenvalues --   -0.64718  -0.63415  -0.63237  -0.63087  -0.63026
 Alpha  occ. eigenvalues --   -0.62898  -0.62702  -0.62421  -0.61071  -0.60770
 Alpha  occ. eigenvalues --   -0.60504  -0.60264  -0.59612  -0.57982  -0.57865
 Alpha  occ. eigenvalues --   -0.57470  -0.57215  -0.56883  -0.56461  -0.56078
 Alpha  occ. eigenvalues --   -0.55800  -0.55494  -0.54446  -0.53524  -0.52914
 Alpha  occ. eigenvalues --   -0.52749  -0.51686  -0.51221  -0.51049  -0.50841
 Alpha  occ. eigenvalues --   -0.50703  -0.50368  -0.50223  -0.49656  -0.49285
 Alpha  occ. eigenvalues --   -0.48420  -0.48158  -0.47870  -0.44242  -0.42435
 Alpha  occ. eigenvalues --   -0.40207  -0.40136  -0.40062  -0.39821  -0.39646
 Alpha  occ. eigenvalues --   -0.39189  -0.38944  -0.37129  -0.36789  -0.36741
 Alpha  occ. eigenvalues --   -0.36029  -0.33689  -0.31669
 Alpha virt. eigenvalues --   -0.01643   0.00747   0.03325   0.06106   0.06462
 Alpha virt. eigenvalues --    0.06528   0.06670   0.08693   0.10406   0.11651
 Alpha virt. eigenvalues --    0.11886   0.12926   0.13542   0.14333   0.14648

  Beta  occ. eigenvalues --  -88.34417 -88.34307 -88.33472 -24.52983 -24.52748
  Beta  occ. eigenvalues --  -24.52455 -24.51757 -24.51584 -24.51349 -14.23162
  Beta  occ. eigenvalues --  -14.23063 -14.22262 -10.23977 -10.23803 -10.23685
  Beta  occ. eigenvalues --  -10.23517 -10.23506 -10.23353 -10.21336 -10.21272
  Beta  occ. eigenvalues --  -10.20349 -10.18153 -10.17811 -10.17785 -10.17657
  Beta  occ. eigenvalues --  -10.17016 -10.16875 -10.16688 -10.16518 -10.16518
  Beta  occ. eigenvalues --  -10.16122 -10.15927 -10.15554 -10.15097 -10.14942
  Beta  occ. eigenvalues --  -10.14799 -10.14746 -10.14617 -10.14606  -7.95248
  Beta  occ. eigenvalues --   -7.95133  -7.94315  -5.96730  -5.96617  -5.96205
  Beta  occ. eigenvalues --   -5.96090  -5.95843  -5.95787  -5.95728  -5.95263
  Beta  occ. eigenvalues --   -5.94928  -1.37812  -1.37552  -1.37300  -1.36946
  Beta  occ. eigenvalues --   -1.36726  -1.36517  -1.13805  -1.13692  -1.12704
  Beta  occ. eigenvalues --   -1.05768  -1.05232  -1.04743  -0.99320  -0.98553
  Beta  occ. eigenvalues --   -0.96070  -0.95797  -0.95305  -0.94489  -0.92284
  Beta  occ. eigenvalues --   -0.91910  -0.91839  -0.90814  -0.88971  -0.87224
  Beta  occ. eigenvalues --   -0.82103  -0.80331  -0.79812  -0.78618  -0.78467
  Beta  occ. eigenvalues --   -0.78120  -0.73862  -0.73815  -0.73575  -0.72551
  Beta  occ. eigenvalues --   -0.72224  -0.71477  -0.69949  -0.69105  -0.68671
  Beta  occ. eigenvalues --   -0.67176  -0.66787  -0.66751  -0.65005  -0.64891
  Beta  occ. eigenvalues --   -0.64718  -0.63415  -0.63237  -0.63087  -0.63026
  Beta  occ. eigenvalues --   -0.62898  -0.62702  -0.62421  -0.61071  -0.60770
  Beta  occ. eigenvalues --   -0.60504  -0.60264  -0.59612  -0.57982  -0.57865
  Beta  occ. eigenvalues --   -0.57470  -0.57215  -0.56883  -0.56461  -0.56078
  Beta  occ. eigenvalues --   -0.55800  -0.55494  -0.54446  -0.53524  -0.52914
  Beta  occ. eigenvalues --   -0.52749  -0.51686  -0.51221  -0.51049  -0.50841
  Beta  occ. eigenvalues --   -0.50703  -0.50368  -0.50223  -0.49656  -0.49285
  Beta  occ. eigenvalues --   -0.48420  -0.48158  -0.47870  -0.44242  -0.42435
  Beta  occ. eigenvalues --   -0.40207  -0.40136  -0.40062  -0.39821  -0.39646
  Beta  occ. eigenvalues --   -0.39189  -0.38944  -0.37129  -0.36789  -0.36741
  Beta  occ. eigenvalues --   -0.36029  -0.33689  -0.31669
  Beta virt. eigenvalues --   -0.01643   0.00747   0.03325   0.06106   0.06462
  Beta virt. eigenvalues --    0.06528   0.06670   0.08693   0.10406   0.11651
  Beta virt. eigenvalues --    0.11886   0.12926   0.13542   0.14333   0.14648

 Mulliken charges and spin densities:
               1          2
     1  C    0.030753  -0.000000
     2  C   -0.006519   0.000000
     3  C    0.119724  -0.000000
     4  F   -0.122562   0.000000
     5  C   -0.097772   0.000000
     6  C    0.131695  -0.000000
     7  F   -0.098829   0.000000
     8  C   -0.013787   0.000000
     9  C    0.005286  -0.000000
    10  N   -0.163947   0.000000
    11  C    0.118252  -0.000000
    12  C   -0.218550  -0.000000
    13  S    0.189715   0.000000
    14  C    0.058492  -0.000000
    15  C   -0.011745  -0.000000
    16  C    0.126926   0.000000
    17  F   -0.120140  -0.000000
    18  C   -0.090746  -0.000000
    19  C    0.137974  -0.000000
    20  F   -0.094970  -0.000000
    21  C   -0.015676   0.000000
    22  C    0.003352  -0.000000
    23  N   -0.166694  -0.000000
    24  C    0.118392   0.000000
    25  C   -0.217685  -0.000000
    26  S    0.189112   0.000000
    27  C    0.056630   0.000000
    28  C   -0.014830   0.000000
    29  C    0.130814   0.000000
    30  F   -0.119860   0.000000
    31  C   -0.087601  -0.000000
    32  C    0.139709   0.000000
    33  F   -0.096515  -0.000000
    34  C   -0.018112  -0.000000
    35  C   -0.016720  -0.000000
    36  N   -0.170107   0.000000
    37  C    0.102889   0.000000
    38  C   -0.188218  -0.000000
    39  S    0.179882   0.000000
    40  H    0.027154  -0.000000
    41  H    0.028867  -0.000000
    42  H    0.028716   0.000000
    43  H    0.027922  -0.000000
    44  H    0.022581   0.000000
    45  H    0.027193  -0.000000
    46  H    0.027578   0.000000
    47  H    0.021100  -0.000000
    48  H    0.026051  -0.000000
    49  H    0.024161   0.000000
    50  H    0.050670  -0.000000
 Sum of Mulliken charges =  -0.00000   0.00000

 Dipole moment (field-independent basis, Debye):
    X=              2.7913    Y=             -1.0756    Z=             -0.5727  Tot=              3.0457
 Quadrupole moment (field-independent basis, Debye-Ang):
   XX=           -162.8991   YY=           -237.5794   ZZ=           -240.1025
   XY=             -2.7318   XZ=             -0.6937   YZ=             -0.6112

 Normal termination of Gaussian 16 at Thu Jul 23 12:45:49 2020.
