 Gaussian 16, Revision A.03,
 Gaussian 16:  EM64L-G16RevA.03 25-Dec-2016

 ---------------------------------------------------------------
 #P uLC-wPBE/cc-pVDZ iop(3/107=0352900000, 3/108=0352900000) opt
 ---------------------------------------------------------------

 -------------------
 H44 C70 S7 N7 O7 F7
 -------------------
 Symbolic Z-matrix:
 Charge =  0 Multiplicity = 1

 SCF Done:  E(ULC-wPBE) =  -7085.90622063     A.U. after   16 cycles
 SCF Done:  E(ULC-wPBE) =  -7086.01716303     A.U. after   13 cycles
 SCF Done:  E(ULC-wPBE) =  -7086.13416513     A.U. after   15 cycles
 SCF Done:  E(ULC-wPBE) =  -7086.16797960     A.U. after   15 cycles
 SCF Done:  E(ULC-wPBE) =  -7086.17556112     A.U. after   15 cycles
 SCF Done:  E(ULC-wPBE) =  -7086.17657724     A.U. after   13 cycles
 SCF Done:  E(ULC-wPBE) =  -7086.17929132     A.U. after   13 cycles
 SCF Done:  E(ULC-wPBE) =  -7086.18074986     A.U. after   15 cycles
 SCF Done:  E(ULC-wPBE) =  -7086.18184025     A.U. after   14 cycles
 SCF Done:  E(ULC-wPBE) =  -7086.18271869     A.U. after   14 cycles
 SCF Done:  E(ULC-wPBE) =  -7086.18366198     A.U. after    9 cycles
 SCF Done:  E(ULC-wPBE) =  -7086.18366277     A.U. after    8 cycles
 SCF Done:  E(ULC-wPBE) =  -7086.18366328     A.U. after    9 cycles
 SCF Done:  E(ULC-wPBE) =  -7086.18366348     A.U. after    9 cycles
 SCF Done:  E(ULC-wPBE) =  -7086.18366381     A.U. after    8 cycles
 SCF Done:  E(ULC-wPBE) =  -7086.18366393     A.U. after    6 cycles
 SCF Done:  E(ULC-wPBE) =  -7086.18366394     A.U. after    5 cycles
 SCF Done:  E(ULC-wPBE) =  -7086.18366388     A.U. after    5 cycles
 SCF Done:  E(ULC-wPBE) =  -7086.18366377     A.U. after    7 cycles
 SCF Done:  E(ULC-wPBE) =  -7086.18366376     A.U. after    6 cycles
 Optimization completed on the basis of negligible forces.
    -- Stationary point found.

                         Standard orientation:
 ---------------------------------------------------------------------
 Center     Atomic      Atomic             Coordinates (Angstroms)
 Number     Number       Type             X           Y           Z
 ---------------------------------------------------------------------
      1          6           0      -23.075805    7.340571   -2.717961
      2          6           0      -21.874473    7.254752   -2.022705
      3          7           0      -21.367441    6.111146   -1.571827
      4          6           0      -22.030395    4.969053   -1.793995
      5          6           0      -23.215671    4.974113   -2.537364
      6          9           0      -23.822001    3.823961   -2.855822
      7          6           0      -23.758678    6.162542   -2.989651
      8          6           0      -21.412843    3.740384   -1.277576
      9          6           0      -21.982860    2.607004   -0.737336
     10          8           0      -23.321218    2.501950   -0.591422
     11          6           0      -23.821043    1.275466   -0.102519
     12          6           0      -21.015355    1.647644   -0.314646
     13          6           0      -19.728692    2.075886   -0.519232
     14         16           0      -19.688960    3.645568   -1.219279
     15          6           0      -18.489764    1.350418   -0.203058
     16          6           0      -18.428955   -0.045388   -0.274327
     17          7           0      -17.352100   -0.765266    0.008035
     18          6           0      -16.225456   -0.151492    0.388250
     19          6           0      -16.203618    1.247439    0.463941
     20          9           0      -15.074593    1.880611    0.834106
     21          6           0      -17.317557    2.005443    0.177541
     22          6           0      -15.060016   -0.986153    0.708944
     23          6           0      -15.054978   -2.331252    1.040996
     24          8           0      -16.197635   -3.028021    1.187946
     25          6           0      -16.080663   -4.388083    1.546442
     26          6           0      -13.742019   -2.853217    1.232628
     27          6           0      -12.765356   -1.910727    1.044844
     28         16           0      -13.435023   -0.382951    0.642275
     29          6           0      -11.311995   -2.096436    1.162362
     30          6           0      -10.710222   -3.317640    0.840501
     31          7           0       -9.410440   -3.561087    0.932856
     32          6           0       -8.583600   -2.597922    1.356407
     33          6           0       -9.111182   -1.340519    1.679140
     34          9           0       -8.291865   -0.357212    2.096587
     35          6           0      -10.460336   -1.077181    1.591287
     36          6           0       -7.153074   -2.914011    1.460823
     37          6           0       -6.572881   -4.170046    1.536937
     38          8           0       -7.316113   -5.290228    1.605767
     39          6           0       -6.624533   -6.517254    1.699223
     40          6           0       -5.147995   -4.124654    1.565656
     41          6           0       -4.658146   -2.846389    1.510021
     42         16           0       -5.923637   -1.690403    1.430550
     43          6           0       -3.247273   -2.432355    1.521216
     44          6           0       -2.258522   -3.232627    0.937772
     45          7           0       -0.965377   -2.940133    0.947719
     46          6           0       -0.546937   -1.807287    1.527218
     47          6           0       -1.481760   -0.916324    2.065095
     48          9           0       -1.091797    0.269787    2.544575
     49          6           0       -2.826253   -1.229256    2.088290
     50          6           0        0.896068   -1.545230    1.496787
     51          6           0        1.718838   -0.942182    2.425434
     52          8           0        1.231611   -0.498862    3.603366
     53          6           0        2.128151    0.180655    4.457241
     54          6           0        3.086372   -0.918376    2.020901
     55          6           0        3.283955   -1.522503    0.805695
     56         16           0        1.812840   -2.125460    0.152059
     57          6           0        4.556949   -1.681536    0.086657
     58          6           0        5.573729   -0.726647    0.198345
     59          7           0        6.740080   -0.806580   -0.427340
     60          6           0        6.991032   -1.849770   -1.229154
     61          6           0        6.042884   -2.870053   -1.359337
     62          9           0        6.322579   -3.969797   -2.067924
     63          6           0        4.822314   -2.788928   -0.719492
     64          6           0        8.304036   -1.878709   -1.883002
     65          6           0        8.672513   -2.322127   -3.136180
     66          8           0        7.757348   -2.814858   -3.997418
     67          6           0        8.232403   -3.299222   -5.235537
     68          6           0       10.060814   -2.134508   -3.402716
     69          6           0       10.718579   -1.531159   -2.361273
     70         16           0        9.654017   -1.186109   -1.056733
     71          6           0       12.146557   -1.185524   -2.297130
     72          6           0       12.612285   -0.079066   -1.578397
     73          7           0       13.886549    0.283255   -1.516840
     74          6           0       14.811398   -0.428967   -2.173101
     75          6           0       14.433335   -1.581366   -2.870801
     76          9           0       15.356921   -2.370161   -3.432846
     77          6           0       13.107979   -1.958691   -2.948809
     78          6           0       16.200816    0.026948   -2.054910
     79          6           0       17.231533    0.014522   -2.971622
     80          8           0       17.049913   -0.469474   -4.218789
     81          6           0       18.176162   -0.495170   -5.070015
     82          6           0       18.431168    0.596316   -2.464500
     83          6           0       18.286709    1.062220   -1.182809
     84         16           0       16.689443    0.816274   -0.597144
     85          6           0       19.309188    1.716803   -0.351756
     86          6           0       20.320735    2.493371   -0.926858
     87          7           0       21.267677    3.112678   -0.234889
     88          6           0       21.282553    3.014624    1.100713
     89          6           0       20.330194    2.221041    1.749226
     90          9           0       20.396687    2.025832    3.071194
     91          6           0       19.335260    1.582291    1.036736
     92          6           0       22.361031    3.716335    1.806663
     93          6           0       22.350287    4.380464    3.015129
     94          8           0       21.218964    4.476459    3.747433
     95          6           0       21.318029    5.115040    5.002048
     96          6           0       23.613391    4.969697    3.334289
     97          6           0       24.535783    4.753797    2.351656
     98         16           0       23.903913    3.863885    1.040163
     99          1           0      -23.459776    8.305700   -3.055006
    100          1           0      -21.285832    8.154684   -1.813740
    101          1           0      -24.689941    6.140361   -3.560082
    102          1           0      -24.914649    1.367797   -0.105119
    103          1           0      -23.480352    1.078880    0.929111
    104          1           0      -23.530102    0.430971   -0.751008
    105          1           0      -21.253447    0.697569    0.162252
    106          1           0      -19.307783   -0.611379   -0.602962
    107          1           0      -17.260870    3.092377    0.274283
    108          1           0      -15.591615   -4.512300    2.528628
    109          1           0      -15.524403   -4.963663    0.786142
    110          1           0      -17.105674   -4.775628    1.606495
    111          1           0      -13.523088   -3.877096    1.532120
    112          1           0      -11.323875   -4.143285    0.463137
    113          1           0      -10.828922   -0.089018    1.876899
    114          1           0       -7.394914   -7.298045    1.734692
    115          1           0       -5.980209   -6.689893    0.819609
    116          1           0       -6.013077   -6.573916    2.616883
    117          1           0       -4.504858   -4.998556    1.658928
    118          1           0       -2.537649   -4.157486    0.421574
    119          1           0       -3.526409   -0.525096    2.544509
    120          1           0        1.538445    0.504780    5.324145
    121          1           0        2.562561    1.068192    3.965637
    122          1           0        2.941041   -0.481239    4.803518
    123          1           0        3.900812   -0.512177    2.619580
    124          1           0        5.423106    0.163317    0.818785
    125          1           0        4.109505   -3.609700   -0.830937
    126          1           0        7.355816   -3.689894   -5.767830
    127          1           0        8.962903   -4.115411   -5.098883
    128          1           0        8.689596   -2.495423   -5.838672
    129          1           0       10.550547   -2.392495   -4.341223
    130          1           0       11.906469    0.557298   -1.032376
    131          1           0       12.849080   -2.874830   -3.483905
    132          1           0       17.835980   -0.939735   -6.013979
    133          1           0       18.559006    0.521010   -5.269136
    134          1           0       18.987136   -1.116451   -4.652162
    135          1           0       19.370531    0.652729   -3.013110
    136          1           0       20.352154    2.634636   -2.012602
    137          1           0       18.615253    0.959231    1.572908
    138          1           0       20.319372    5.059156    5.453958
    139          1           0       21.605526    6.176014    4.897753
    140          1           0       22.040192    4.604172    5.662416
    141          1           0       23.825720    5.534777    4.241081
    142          1           0       25.571493    5.091834    2.337853
 ---------------------------------------------------------------------

 Alpha virt. eigenvalues --    0.34543   0.35049   0.35407   0.35683   0.35791
 Alpha virt. eigenvalues --    0.35895   0.36154   0.36253   0.36333   0.36638
 Alpha virt. eigenvalues --    0.37082   0.37117   0.37345   0.37507   0.37782

  Beta  occ. eigenvalues --  -88.30001 -88.29905 -88.29768 -88.29706 -88.29607
  Beta  occ. eigenvalues --  -88.29558 -88.29039 -24.49102 -24.48975 -24.48294
  Beta  occ. eigenvalues --  -24.48221 -24.48210 -24.48064 -24.47852 -18.99443
  Beta  occ. eigenvalues --  -18.99415 -18.99351 -18.99321 -18.99176 -18.99096
  Beta  occ. eigenvalues --  -18.98883 -14.20199 -14.20070 -14.19973 -14.19755
  Beta  occ. eigenvalues --  -14.19703 -14.19662 -14.19543 -10.19016 -10.19012
  Beta  occ. eigenvalues --  -10.18907 -10.18885 -10.18883 -10.18673 -10.18539
  Beta  occ. eigenvalues --  -10.16628 -10.16526 -10.16519 -10.16465 -10.16372
  Beta  occ. eigenvalues --  -10.16344 -10.15806 -10.15601 -10.15462 -10.15448
  Beta  occ. eigenvalues --  -10.15398 -10.15375 -10.15338 -10.15330 -10.15328
  Beta  occ. eigenvalues --  -10.15291 -10.15224 -10.15196 -10.15176 -10.14966
  Beta  occ. eigenvalues --  -10.14955 -10.14386 -10.14289 -10.14247 -10.14206
  Beta  occ. eigenvalues --  -10.14084 -10.14057 -10.13769 -10.13640 -10.13586
  Beta  occ. eigenvalues --  -10.13528 -10.13441 -10.13342 -10.13287 -10.13285
  Beta  occ. eigenvalues --  -10.13150 -10.13120 -10.13094 -10.12958 -10.12839
  Beta  occ. eigenvalues --  -10.12634 -10.12600 -10.12528 -10.12477 -10.12468
  Beta  occ. eigenvalues --  -10.12368 -10.12360 -10.12337 -10.12324 -10.12292
  Beta  occ. eigenvalues --  -10.12227 -10.12184 -10.12179 -10.12035 -10.11595
  Beta  occ. eigenvalues --  -10.11453 -10.10756 -10.10725 -10.10709 -10.10656
  Beta  occ. eigenvalues --  -10.10580 -10.10529 -10.10062  -7.90635  -7.90539
  Beta  occ. eigenvalues --   -7.90392  -7.90327  -7.90232  -7.90181  -7.89673
  Beta  occ. eigenvalues --   -5.92337  -5.92241  -5.92088  -5.92024  -5.91928
  Beta  occ. eigenvalues --   -5.91877  -5.91809  -5.91713  -5.91573  -5.91506
  Beta  occ. eigenvalues --   -5.91413  -5.91381  -5.91362  -5.91361  -5.91286
  Beta  occ. eigenvalues --   -5.91142  -5.91078  -5.90983  -5.90932  -5.90843
  Beta  occ. eigenvalues --   -5.90441  -1.33569  -1.33439  -1.33023  -1.32930
  Beta  occ. eigenvalues --   -1.32927  -1.32754  -1.32567  -1.19067  -1.19044
  Beta  occ. eigenvalues --   -1.18967  -1.18965  -1.18940  -1.18883  -1.18483
  Beta  occ. eigenvalues --   -1.08594  -1.08463  -1.08367  -1.08300  -1.08169
  Beta  occ. eigenvalues --   -1.08077  -1.08029  -1.02940  -1.02742  -1.02580
  Beta  occ. eigenvalues --   -1.02378  -1.02218  -1.02119  -1.01222  -0.96151
  Beta  occ. eigenvalues --   -0.95859  -0.95517  -0.95143  -0.94870  -0.94679
  Beta  occ. eigenvalues --   -0.93892  -0.92264  -0.92085  -0.91905  -0.91675
  Beta  occ. eigenvalues --   -0.91336  -0.90900  -0.90559  -0.88959  -0.88461
  Beta  occ. eigenvalues --   -0.88066  -0.87949  -0.87784  -0.87753  -0.87460
  Beta  occ. eigenvalues --   -0.87440  -0.87066  -0.86628  -0.86071  -0.85362
  Beta  occ. eigenvalues --   -0.84956  -0.84812  -0.82462  -0.82362  -0.82166
  Beta  occ. eigenvalues --   -0.81839  -0.81494  -0.80900  -0.79945  -0.79397
  Beta  occ. eigenvalues --   -0.78380  -0.77579  -0.77089  -0.76899  -0.76817
  Beta  occ. eigenvalues --   -0.76731  -0.76541  -0.76168  -0.75894  -0.75546
  Beta  occ. eigenvalues --   -0.75132  -0.74632  -0.74320  -0.70407  -0.70178
  Beta  occ. eigenvalues --   -0.69870  -0.69667  -0.69439  -0.69354  -0.69078
  Beta  occ. eigenvalues --   -0.68818  -0.68737  -0.68642  -0.68407  -0.68123
  Beta  occ. eigenvalues --   -0.67907  -0.67786  -0.67204  -0.67136  -0.66864
  Beta  occ. eigenvalues --   -0.66539  -0.66256  -0.65970  -0.65654  -0.64901
  Beta  occ. eigenvalues --   -0.64227  -0.64103  -0.64004  -0.63823  -0.63733
  Beta  occ. eigenvalues --   -0.63534  -0.63521  -0.63042  -0.62971  -0.62893
  Beta  occ. eigenvalues --   -0.62785  -0.62686  -0.62639  -0.60469  -0.60216
  Beta  occ. eigenvalues --   -0.60064  -0.59994  -0.59899  -0.59779  -0.59686
  Beta  occ. eigenvalues --   -0.59474  -0.59393  -0.59368  -0.59273  -0.59194
  Beta  occ. eigenvalues --   -0.59171  -0.59151  -0.59019  -0.59002  -0.58997
  Beta  occ. eigenvalues --   -0.58970  -0.58899  -0.58877  -0.58721  -0.57523
  Beta  occ. eigenvalues --   -0.57398  -0.57228  -0.56998  -0.56850  -0.56576
  Beta  occ. eigenvalues --   -0.56265  -0.55081  -0.55060  -0.55024  -0.54983
  Beta  occ. eigenvalues --   -0.54962  -0.54707  -0.54592  -0.54393  -0.53890
  Beta  occ. eigenvalues --   -0.53667  -0.53406  -0.53350  -0.53321  -0.53129
  Beta  occ. eigenvalues --   -0.53032  -0.52865  -0.52832  -0.52790  -0.52681
  Beta  occ. eigenvalues --   -0.52661  -0.52555  -0.52443  -0.52362  -0.52326
  Beta  occ. eigenvalues --   -0.52190  -0.52132  -0.52075  -0.52013  -0.51725
  Beta  occ. eigenvalues --   -0.51572  -0.51426  -0.51200  -0.51081  -0.50831
  Beta  occ. eigenvalues --   -0.50476  -0.50459  -0.50301  -0.50185  -0.50004
  Beta  occ. eigenvalues --   -0.49914  -0.49883  -0.49791  -0.49355  -0.48992
  Beta  occ. eigenvalues --   -0.48716  -0.48475  -0.48313  -0.48045  -0.47907
  Beta  occ. eigenvalues --   -0.47834  -0.45754  -0.45684  -0.45583  -0.45255
  Beta  occ. eigenvalues --   -0.45180  -0.45125  -0.44956  -0.44921  -0.44839
  Beta  occ. eigenvalues --   -0.44660  -0.44639  -0.44466  -0.44457  -0.44243
  Beta  occ. eigenvalues --   -0.44235  -0.44130  -0.43960  -0.43867  -0.43788
  Beta  occ. eigenvalues --   -0.43732  -0.43042  -0.41741  -0.41439  -0.41062
  Beta  occ. eigenvalues --   -0.40545  -0.40008  -0.39581  -0.39441  -0.37981
  Beta  occ. eigenvalues --   -0.37757  -0.37568  -0.37412  -0.37292  -0.37207
  Beta  occ. eigenvalues --   -0.37100  -0.36994  -0.36887  -0.36815  -0.36625
  Beta  occ. eigenvalues --   -0.36280  -0.36230  -0.36017  -0.34782  -0.34226
  Beta  occ. eigenvalues --   -0.33915  -0.33730  -0.33587  -0.33566  -0.33174
  Beta  occ. eigenvalues --   -0.31563  -0.31133  -0.30485  -0.29594  -0.28755
  Beta  occ. eigenvalues --   -0.27921  -0.27398
  Beta virt. eigenvalues --   -0.01429  -0.00680   0.00308   0.01360   0.02561
  Beta virt. eigenvalues --    0.03658   0.04440   0.05268   0.05344   0.05490
  Beta virt. eigenvalues --    0.05543   0.05652   0.05896   0.06588   0.06912

 Mulliken charges and spin densities:
               1          2
     1  C   -0.043855  -0.000000
     2  C    0.079126   0.000000
     3  N   -0.195607   0.000000
     4  C    0.053429  -0.000000
     5  C    0.108999   0.000000
     6  F   -0.114883  -0.000000
     7  C    0.048523  -0.000000
     8  C   -0.188593  -0.000000
     9  C    0.157942  -0.000000
    10  O   -0.240428   0.000000
    11  C    0.046599   0.000000
    12  C   -0.014143   0.000000
    13  C   -0.158223   0.000000
    14  S    0.208859   0.000000
    15  C   -0.024014  -0.000000
    16  C    0.077133  -0.000000
    17  N   -0.173434  -0.000000
    18  C    0.058393   0.000000
    19  C    0.111316  -0.000000
    20  F   -0.125416  -0.000000
    21  C    0.058808   0.000000
    22  C   -0.205363   0.000000
    23  C    0.180747  -0.000000
    24  O   -0.218448  -0.000000
    25  C    0.045260  -0.000000
    26  C   -0.014216   0.000000
    27  C   -0.156344  -0.000000
    28  S    0.184699  -0.000000
    29  C   -0.022708   0.000000
    30  C    0.077876   0.000000
    31  N   -0.173424   0.000000
    32  C    0.059494   0.000000
    33  C    0.111562   0.000000
    34  F   -0.125201  -0.000000
    35  C    0.058073  -0.000000
    36  C   -0.205425  -0.000000
    37  C    0.180519   0.000000
    38  O   -0.218136   0.000000
    39  C    0.044972  -0.000000
    40  C   -0.012609  -0.000000
    41  C   -0.157832  -0.000000
    42  S    0.184801  -0.000000
    43  C   -0.026246  -0.000000
    44  C    0.084222   0.000000
    45  N   -0.193062  -0.000000
    46  C    0.059496   0.000000
    47  C    0.118723  -0.000000
    48  F   -0.110805  -0.000000
    49  C    0.057062   0.000000
    50  C   -0.192360  -0.000000
    51  C    0.155283  -0.000000
    52  O   -0.240003   0.000000
    53  C    0.045964   0.000000
    54  C   -0.012621  -0.000000
    55  C   -0.159330  -0.000000
    56  S    0.210606   0.000000
    57  C   -0.026156   0.000000
    58  C    0.084207  -0.000000
    59  N   -0.192485   0.000000
    60  C    0.059231   0.000000
    61  C    0.117512  -0.000000
    62  F   -0.111799   0.000000
    63  C    0.057461  -0.000000
    64  C   -0.192289   0.000000
    65  C    0.156723  -0.000000
    66  O   -0.239462  -0.000000
    67  C    0.046637  -0.000000
    68  C   -0.013453   0.000000
    69  C   -0.162145  -0.000000
    70  S    0.213597  -0.000000
    71  C   -0.022366  -0.000000
    72  C    0.085742  -0.000000
    73  N   -0.192593   0.000000
    74  C    0.060632  -0.000000
    75  C    0.118510   0.000000
    76  F   -0.113067  -0.000000
    77  C    0.051618   0.000000
    78  C   -0.193759   0.000000
    79  C    0.155251  -0.000000
    80  O   -0.240439  -0.000000
    81  C    0.046801  -0.000000
    82  C   -0.013985  -0.000000
    83  C   -0.158184   0.000000
    84  S    0.211919   0.000000
    85  C   -0.026883  -0.000000
    86  C    0.082343   0.000000
    87  N   -0.191088   0.000000
    88  C    0.065131   0.000000
    89  C    0.118228   0.000000
    90  F   -0.112432  -0.000000
    91  C    0.056597   0.000000
    92  C   -0.203765  -0.000000
    93  C    0.141317  -0.000000
    94  O   -0.239979   0.000000
    95  C    0.045746   0.000000
    96  C   -0.000742   0.000000
    97  C   -0.132378   0.000000
    98  S    0.201700   0.000000
    99  H    0.012328   0.000000
   100  H    0.018937   0.000000
   101  H    0.022943  -0.000000
   102  H    0.060281  -0.000000
   103  H    0.048961  -0.000000
   104  H    0.048570   0.000000
   105  H    0.006977  -0.000000
   106  H    0.010411  -0.000000
   107  H    0.023724   0.000000
   108  H    0.047053   0.000000
   109  H    0.047827  -0.000000
   110  H    0.060557  -0.000000
   111  H    0.007105  -0.000000
   112  H    0.011107  -0.000000
   113  H    0.023310  -0.000000
   114  H    0.060898   0.000000
   115  H    0.048228   0.000000
   116  H    0.047506   0.000000
   117  H    0.007733  -0.000000
   118  H    0.014015   0.000000
   119  H    0.023278   0.000000
   120  H    0.061538  -0.000000
   121  H    0.049775   0.000000
   122  H    0.049537  -0.000000
   123  H    0.008215  -0.000000
   124  H    0.013334   0.000000
   125  H    0.023082   0.000000
   126  H    0.061836  -0.000000
   127  H    0.047565   0.000000
   128  H    0.049406   0.000000
   129  H    0.005225  -0.000000
   130  H    0.024063   0.000000
   131  H    0.012206   0.000000
   132  H    0.059993   0.000000
   133  H    0.048359  -0.000000
   134  H    0.050459  -0.000000
   135  H    0.007827   0.000000
   136  H    0.011646  -0.000000
   137  H    0.021526  -0.000000
   138  H    0.060048   0.000000
   139  H    0.047096  -0.000000
   140  H    0.047878  -0.000000
   141  H    0.008203  -0.000000
   142  H    0.036219  -0.000000
 Sum of Mulliken charges =  -0.00000  -0.00000

 Dipole moment (field-independent basis, Debye):
    X=             -2.9448    Y=             -3.2651    Z=              1.0583  Tot=              4.5225
 Quadrupole moment (field-independent basis, Debye-Ang):
   XX=           -421.9120   YY=           -540.8663   ZZ=           -538.4235
   XY=             24.1479   XZ=             -8.0512   YZ=             15.1275

 Normal termination of Gaussian 16 at Sun Jul 26 01:39:22 2020.
