 Gaussian 16, Revision A.03,
 Gaussian 16:  EM64L-G16RevA.03 25-Dec-2016

 ---------------------------------------------------------------
 #P uLC-wPBE/cc-pVDZ iop(3/107=0472000000, 3/108=0472000000) opt
 ---------------------------------------------------------------

 ----------------
 H23 C30 S3 N3 O3
 ----------------
 Symbolic Z-matrix:
 Charge =  0 Multiplicity = 1

 SCF Done:  E(ULC-wPBE) =  -2740.08204305     A.U. after   17 cycles
 SCF Done:  E(ULC-wPBE) =  -2740.13629087     A.U. after   14 cycles
 SCF Done:  E(ULC-wPBE) =  -2740.17432123     A.U. after   16 cycles
 SCF Done:  E(ULC-wPBE) =  -2740.17968115     A.U. after   16 cycles
 SCF Done:  E(ULC-wPBE) =  -2740.18380745     A.U. after   16 cycles
 SCF Done:  E(ULC-wPBE) =  -2740.18511798     A.U. after   16 cycles
 SCF Done:  E(ULC-wPBE) =  -2740.18543764     A.U. after   13 cycles
 SCF Done:  E(ULC-wPBE) =  -2740.18568795     A.U. after   13 cycles
 SCF Done:  E(ULC-wPBE) =  -2740.18578240     A.U. after   12 cycles
 SCF Done:  E(ULC-wPBE) =  -2740.18582324     A.U. after   12 cycles
 SCF Done:  E(ULC-wPBE) =  -2740.18583914     A.U. after   11 cycles
 SCF Done:  E(ULC-wPBE) =  -2740.18584545     A.U. after   11 cycles
 SCF Done:  E(ULC-wPBE) =  -2740.18584816     A.U. after    9 cycles
 SCF Done:  E(ULC-wPBE) =  -2740.18584999     A.U. after    9 cycles
 SCF Done:  E(ULC-wPBE) =  -2740.18585055     A.U. after    8 cycles
 SCF Done:  E(ULC-wPBE) =  -2740.18585065     A.U. after    7 cycles
 SCF Done:  E(ULC-wPBE) =  -2740.18585065     A.U. after    6 cycles
 Optimization completed.
    -- Stationary point found.

                         Standard orientation:
 ---------------------------------------------------------------------
 Center     Atomic      Atomic             Coordinates (Angstroms)
 Number     Number       Type             X           Y           Z
 ---------------------------------------------------------------------
      1          6           0      -11.320423   -0.169757    1.121761
      2          6           0      -11.076337    0.993483    0.410948
      3          6           0       -9.786181    1.292125    0.017696
      4          6           0       -8.766032    0.402486    0.353632
      5          7           0       -8.999021   -0.718588    1.037889
      6          6           0      -10.240572   -0.988080    1.406701
      7          6           0       -7.365204    0.619363   -0.010164
      8          6           0       -6.760377    1.636532   -0.702931
      9          8           0       -7.468095    2.675917   -1.194438
     10          6           0       -6.758449    3.668559   -1.891540
     11          6           0       -5.355875    1.459892   -0.841259
     12          6           0       -4.918582    0.311631   -0.248538
     13         16           0       -6.202875   -0.551654    0.482147
     14          6           0       -3.540097   -0.186922   -0.196425
     15          6           0       -3.233834   -1.544307   -0.187234
     16          6           0       -1.918449   -1.955402   -0.147475
     17          6           0       -0.914517   -0.987865   -0.123610
     18          7           0       -1.198049    0.316172   -0.124475
     19          6           0       -2.461927    0.692974   -0.153842
     20          6           0        0.510126   -1.310377   -0.094807
     21          6           0        1.158579   -2.519258   -0.085540
     22          8           0        0.478928   -3.684708   -0.095773
     23          6           0        1.230816   -4.872408   -0.083151
     24          6           0        2.574566   -2.392596   -0.054317
     25          6           0        2.976947   -1.089023   -0.042460
     26         16           0        1.644977   -0.015160   -0.076313
     27          6           0        4.355722   -0.589660   -0.009661
     28          6           0        4.708066    0.597376    0.624894
     29          6           0        6.022901    1.012557    0.632095
     30          6           0        6.979845    0.218840    0.001048
     31          7           0        6.650799   -0.917337   -0.616280
     32          6           0        5.387252   -1.296161   -0.622269
     33          6           0        8.402062    0.556713   -0.040949
     34          6           0        9.085127    1.626477    0.480069
     35          8           0        8.454104    2.601441    1.168605
     36          6           0        9.240911    3.656137    1.661678
     37          6           0       10.484087    1.577227    0.212539
     38          6           0       10.816070    0.471759   -0.502651
     39         16           0        9.477512   -0.510502   -0.860057
     40          1           0      -12.321534   -0.439654    1.449137
     41          1           0      -11.891393    1.671166    0.161458
     42          1           0       -9.555834    2.193253   -0.539830
     43          1           0      -10.381399   -1.915536    1.964417
     44          1           0       -6.270329    3.260403   -2.786665
     45          1           0       -7.493137    4.416887   -2.197951
     46          1           0       -6.005537    4.148445   -1.252014
     47          1           0       -4.699321    2.133383   -1.381923
     48          1           0       -4.032739   -2.283839   -0.225010
     49          1           0       -1.657333   -3.007704   -0.144009
     50          1           0       -2.640058    1.769277   -0.126590
     51          1           0        0.511247   -5.694177   -0.102837
     52          1           0        1.880798   -4.945389   -0.965298
     53          1           0        1.839650   -4.952638    0.827236
     54          1           0        3.267925   -3.225779   -0.010008
     55          1           0        3.947851    1.193324    1.128438
     56          1           0        6.320217    1.931754    1.124212
     57          1           0        5.167733   -2.218233   -1.163151
     58          1           0        9.736160    4.202610    0.847849
     59          1           0        9.996716    3.295595    2.372317
     60          1           0        8.559703    4.333971    2.181420
     61          1           0       11.204893    2.321788    0.533178
     62          1           0       11.808979    0.191307   -0.839312
 ---------------------------------------------------------------------

 The electronic state is 1-A.
 Alpha  occ. eigenvalues --  -88.35461 -88.35440 -88.35257 -19.05844 -19.05837
 Alpha  occ. eigenvalues --  -19.05667 -14.25118 -14.25053 -14.24569 -10.22864
 Alpha  occ. eigenvalues --  -10.22787 -10.22640 -10.22081 -10.21990 -10.21902
 Alpha  occ. eigenvalues --  -10.21071 -10.20997 -10.20677 -10.20194 -10.19981
 Alpha  occ. eigenvalues --  -10.19797 -10.19702 -10.19226 -10.19147 -10.18125
 Alpha  occ. eigenvalues --  -10.18055 -10.18013 -10.18009 -10.17987 -10.17944
 Alpha  occ. eigenvalues --  -10.17792 -10.17655 -10.16697 -10.16586 -10.16418
 Alpha  occ. eigenvalues --  -10.16339 -10.16264 -10.16172 -10.15917  -7.96324
 Alpha  occ. eigenvalues --   -7.96311  -7.96118  -5.97534  -5.97512  -5.97327
 Alpha  occ. eigenvalues --   -5.96981  -5.96955  -5.96774  -5.96566  -5.96558
 Alpha  occ. eigenvalues --   -5.96353  -1.25415  -1.25410  -1.25237  -1.13745
 Alpha  occ. eigenvalues --   -1.13620  -1.13049  -1.08085  -1.07539  -1.07164
 Alpha  occ. eigenvalues --   -1.00225  -0.99436  -0.97953  -0.97102  -0.96494
 Alpha  occ. eigenvalues --   -0.95274  -0.92945  -0.92550  -0.92435  -0.91391
 Alpha  occ. eigenvalues --   -0.90091  -0.89135  -0.86549  -0.85872  -0.84439
 Alpha  occ. eigenvalues --   -0.81512  -0.80086  -0.79700  -0.79159  -0.78729
 Alpha  occ. eigenvalues --   -0.76986  -0.73073  -0.72206  -0.71682  -0.71282
 Alpha  occ. eigenvalues --   -0.71045  -0.70763  -0.69991  -0.69525  -0.68969
 Alpha  occ. eigenvalues --   -0.64647  -0.64112  -0.63586  -0.63144  -0.63107
 Alpha  occ. eigenvalues --   -0.63007  -0.62746  -0.62510  -0.62139  -0.61997
 Alpha  occ. eigenvalues --   -0.61362  -0.60240  -0.58707  -0.58008  -0.57833
 Alpha  occ. eigenvalues --   -0.57746  -0.57419  -0.57052  -0.56373  -0.56253
 Alpha  occ. eigenvalues --   -0.56040  -0.55207  -0.54565  -0.54421  -0.54180
 Alpha  occ. eigenvalues --   -0.54086  -0.53158  -0.52413  -0.51961  -0.51820
 Alpha  occ. eigenvalues --   -0.51289  -0.50999  -0.50271  -0.49563  -0.47435
 Alpha  occ. eigenvalues --   -0.47315  -0.47196  -0.47000  -0.46875  -0.46611
 Alpha  occ. eigenvalues --   -0.46356  -0.46196  -0.45938  -0.43178  -0.41597
 Alpha  occ. eigenvalues --   -0.40289  -0.39914  -0.39529  -0.38710  -0.38612
 Alpha  occ. eigenvalues --   -0.38244  -0.38054  -0.35408  -0.34803  -0.34689
 Alpha  occ. eigenvalues --   -0.32475  -0.30424  -0.28253
 Alpha virt. eigenvalues --    0.00500   0.02935   0.05644   0.06847   0.06959
 Alpha virt. eigenvalues --    0.07556   0.09379   0.11946   0.13991   0.14885
 Alpha virt. eigenvalues --    0.15051   0.15116   0.15793   0.15811   0.15841

  Beta  occ. eigenvalues --  -88.35461 -88.35440 -88.35257 -19.05844 -19.05837
  Beta  occ. eigenvalues --  -19.05667 -14.25118 -14.25053 -14.24569 -10.22864
  Beta  occ. eigenvalues --  -10.22787 -10.22640 -10.22081 -10.21990 -10.21902
  Beta  occ. eigenvalues --  -10.21071 -10.20997 -10.20677 -10.20194 -10.19981
  Beta  occ. eigenvalues --  -10.19797 -10.19702 -10.19226 -10.19147 -10.18125
  Beta  occ. eigenvalues --  -10.18055 -10.18013 -10.18009 -10.17987 -10.17944
  Beta  occ. eigenvalues --  -10.17792 -10.17655 -10.16697 -10.16586 -10.16418
  Beta  occ. eigenvalues --  -10.16339 -10.16264 -10.16172 -10.15917  -7.96324
  Beta  occ. eigenvalues --   -7.96311  -7.96118  -5.97534  -5.97512  -5.97327
  Beta  occ. eigenvalues --   -5.96981  -5.96955  -5.96774  -5.96566  -5.96558
  Beta  occ. eigenvalues --   -5.96353  -1.25415  -1.25410  -1.25237  -1.13745
  Beta  occ. eigenvalues --   -1.13620  -1.13049  -1.08085  -1.07539  -1.07164
  Beta  occ. eigenvalues --   -1.00225  -0.99436  -0.97953  -0.97102  -0.96494
  Beta  occ. eigenvalues --   -0.95274  -0.92945  -0.92550  -0.92435  -0.91391
  Beta  occ. eigenvalues --   -0.90091  -0.89135  -0.86549  -0.85872  -0.84439
  Beta  occ. eigenvalues --   -0.81512  -0.80086  -0.79700  -0.79159  -0.78729
  Beta  occ. eigenvalues --   -0.76986  -0.73073  -0.72206  -0.71682  -0.71282
  Beta  occ. eigenvalues --   -0.71045  -0.70763  -0.69991  -0.69525  -0.68969
  Beta  occ. eigenvalues --   -0.64647  -0.64112  -0.63586  -0.63144  -0.63107
  Beta  occ. eigenvalues --   -0.63007  -0.62746  -0.62510  -0.62139  -0.61997
  Beta  occ. eigenvalues --   -0.61362  -0.60240  -0.58707  -0.58008  -0.57833
  Beta  occ. eigenvalues --   -0.57746  -0.57419  -0.57052  -0.56373  -0.56253
  Beta  occ. eigenvalues --   -0.56040  -0.55207  -0.54565  -0.54421  -0.54180
  Beta  occ. eigenvalues --   -0.54086  -0.53158  -0.52413  -0.51961  -0.51820
  Beta  occ. eigenvalues --   -0.51289  -0.50999  -0.50271  -0.49563  -0.47435
  Beta  occ. eigenvalues --   -0.47315  -0.47196  -0.47000  -0.46875  -0.46611
  Beta  occ. eigenvalues --   -0.46356  -0.46196  -0.45938  -0.43178  -0.41597
  Beta  occ. eigenvalues --   -0.40289  -0.39914  -0.39529  -0.38710  -0.38612
  Beta  occ. eigenvalues --   -0.38244  -0.38054  -0.35408  -0.34803  -0.34689
  Beta  occ. eigenvalues --   -0.32475  -0.30424  -0.28253
  Beta virt. eigenvalues --    0.00500   0.02935   0.05644   0.06847   0.06959
  Beta virt. eigenvalues --    0.07556   0.09379   0.11946   0.13991   0.14885
  Beta virt. eigenvalues --    0.15051   0.15116   0.15793   0.15811   0.15841

 Mulliken charges and spin densities:
               1          2
     1  C   -0.084177  -0.000000
     2  C    0.059576   0.000000
     3  C   -0.044371  -0.000000
     4  C    0.139478   0.000000
     5  N   -0.240256   0.000000
     6  C    0.089686  -0.000000
     7  C   -0.200737   0.000000
     8  C    0.141918  -0.000000
     9  O   -0.276541  -0.000000
    10  C    0.037499  -0.000000
    11  C   -0.016841   0.000000
    12  C   -0.167211   0.000000
    13  S    0.215957  -0.000000
    14  C   -0.058571  -0.000000
    15  C    0.063284   0.000000
    16  C   -0.021386   0.000000
    17  C    0.147278  -0.000000
    18  N   -0.238561  -0.000000
    19  C    0.100178   0.000000
    20  C   -0.205865  -0.000000
    21  C    0.137757   0.000000
    22  O   -0.276096  -0.000000
    23  C    0.037169   0.000000
    24  C   -0.014563   0.000000
    25  C   -0.166643  -0.000000
    26  S    0.216590  -0.000000
    27  C   -0.059657   0.000000
    28  C    0.062451  -0.000000
    29  C   -0.021343   0.000000
    30  C    0.152809  -0.000000
    31  N   -0.237719   0.000000
    32  C    0.099413  -0.000000
    33  C   -0.210076   0.000000
    34  C    0.119845  -0.000000
    35  O   -0.275378   0.000000
    36  C    0.035701   0.000000
    37  C   -0.006415  -0.000000
    38  C   -0.146599   0.000000
    39  S    0.213533   0.000000
    40  H    0.017868  -0.000000
    41  H    0.021563   0.000000
    42  H    0.025163   0.000000
    43  H    0.027544   0.000000
    44  H    0.058088   0.000000
    45  H    0.066945  -0.000000
    46  H    0.056502   0.000000
    47  H    0.019473   0.000000
    48  H    0.025231  -0.000000
    49  H    0.025756   0.000000
    50  H    0.022505   0.000000
    51  H    0.068340  -0.000000
    52  H    0.057030  -0.000000
    53  H    0.058643  -0.000000
    54  H    0.020215  -0.000000
    55  H    0.025205  -0.000000
    56  H    0.026298   0.000000
    57  H    0.023198  -0.000000
    58  H    0.056812  -0.000000
    59  H    0.056635  -0.000000
    60  H    0.067932   0.000000
    61  H    0.022338   0.000000
    62  H    0.049604  -0.000000
 Sum of Mulliken charges =  -0.00000  -0.00000

 Dipole moment (field-independent basis, Debye):
    X=              1.5533    Y=              2.1544    Z=             -0.0204  Tot=              2.6560
 Quadrupole moment (field-independent basis, Debye-Ang):
   XX=           -184.8759   YY=           -200.3857   ZZ=           -244.5345
   XY=              4.6538   XZ=             19.3226   YZ=             -0.5433

 Normal termination of Gaussian 16 at Fri Jul 24 21:03:50 2020.
