 Gaussian 16, Revision A.03,
 Gaussian 16:  EM64L-G16RevA.03 25-Dec-2016

 ---------------------------------------------------------------
 #P uLC-wPBE/cc-pVDZ iop(3/107=0305800000, 3/108=0305800000) opt
 ---------------------------------------------------------------

 -----------
 H8 C9 S2 O1
 -----------
 Symbolic Z-matrix:
 Charge =  0 Multiplicity = 1

 SCF Done:  E(ULC-wPBE) =  -1218.76436747     A.U. after   16 cycles
 SCF Done:  E(ULC-wPBE) =  -1218.78823260     A.U. after   14 cycles
 SCF Done:  E(ULC-wPBE) =  -1218.79210517     A.U. after   14 cycles
 SCF Done:  E(ULC-wPBE) =  -1218.79254033     A.U. after   13 cycles
 SCF Done:  E(ULC-wPBE) =  -1218.79281430     A.U. after   14 cycles
 SCF Done:  E(ULC-wPBE) =  -1218.79298668     A.U. after   13 cycles
 SCF Done:  E(ULC-wPBE) =  -1218.79314411     A.U. after   13 cycles
 SCF Done:  E(ULC-wPBE) =  -1218.79338206     A.U. after   13 cycles
 SCF Done:  E(ULC-wPBE) =  -1218.79359271     A.U. after   13 cycles
 SCF Done:  E(ULC-wPBE) =  -1218.79361763     A.U. after   11 cycles
 SCF Done:  E(ULC-wPBE) =  -1218.79362209     A.U. after   11 cycles
 SCF Done:  E(ULC-wPBE) =  -1218.79362451     A.U. after   10 cycles
 SCF Done:  E(ULC-wPBE) =  -1218.79362683     A.U. after   10 cycles
 SCF Done:  E(ULC-wPBE) =  -1218.79362744     A.U. after   10 cycles
 SCF Done:  E(ULC-wPBE) =  -1218.79362860     A.U. after    9 cycles
 SCF Done:  E(ULC-wPBE) =  -1218.79362891     A.U. after    8 cycles
 SCF Done:  E(ULC-wPBE) =  -1218.79362892     A.U. after    7 cycles
 Optimization completed.
    -- Stationary point found.

                         Standard orientation:
 ---------------------------------------------------------------------
 Center     Atomic      Atomic             Coordinates (Angstroms)
 Number     Number       Type             X           Y           Z
 ---------------------------------------------------------------------
      1          6           0       -3.366020    0.502900    0.000008
      2          6           0       -3.314837   -0.863010   -0.000068
      3          6           0       -1.979205   -1.354198   -0.000101
      4          6           0       -1.032183   -0.354462   -0.000033
      5         16           0       -1.796725    1.206313    0.000094
      6          6           0        0.418971   -0.507747    0.000014
      7          6           0        1.392983    0.471229   -0.000001
      8          8           0        1.032892    1.780119    0.000008
      9          6           0        2.075122    2.736986   -0.000087
     10          6           0        2.725257   -0.049145   -0.000000
     11          6           0        2.736010   -1.415514    0.000011
     12         16           0        1.154937   -2.079303    0.000041
     13          1           0       -4.249141    1.143811   -0.000003
     14          1           0       -4.200628   -1.502569   -0.000122
     15          1           0       -1.722825   -2.416978   -0.000214
     16          1           0        2.708408    2.647686    0.902235
     17          1           0        2.708300    2.647626   -0.902477
     18          1           0        1.586946    3.722028   -0.000089
     19          1           0        3.632367    0.557017   -0.000024
     20          1           0        3.605477   -2.073972    0.000017
 ---------------------------------------------------------------------

 The electronic state is 1-A.
 Alpha  occ. eigenvalues --  -88.26942 -88.25930 -18.97158 -10.13147 -10.12882
 Alpha  occ. eigenvalues --  -10.10370 -10.10273 -10.09940 -10.08489 -10.07986
 Alpha  occ. eigenvalues --  -10.06599 -10.06446  -7.87512  -7.86453  -5.89339
 Alpha  occ. eigenvalues --   -5.88838  -5.88408  -5.88281  -5.87757  -5.87384
 Alpha  occ. eigenvalues --   -1.16257  -0.99623  -0.97416  -0.87031  -0.85387
 Alpha  occ. eigenvalues --   -0.82920  -0.81117  -0.78047  -0.69473  -0.67468
 Alpha  occ. eigenvalues --   -0.64916  -0.63686  -0.61741  -0.57544  -0.57343
 Alpha  occ. eigenvalues --   -0.55642  -0.53742  -0.51115  -0.50359  -0.49076
 Alpha  occ. eigenvalues --   -0.48014  -0.47632  -0.46089  -0.44630  -0.43255
 Alpha  occ. eigenvalues --   -0.42631  -0.41156  -0.37006  -0.33393  -0.32575
 Alpha  occ. eigenvalues --   -0.27454
 Alpha virt. eigenvalues --    0.03060   0.09527   0.11420   0.13482   0.14597
 Alpha virt. eigenvalues --    0.14688   0.15832   0.17150   0.17555   0.18299
 Alpha virt. eigenvalues --    0.19585   0.20481   0.21785   0.22092   0.23423

  Beta  occ. eigenvalues --  -88.26942 -88.25930 -18.97158 -10.13147 -10.12882
  Beta  occ. eigenvalues --  -10.10370 -10.10273 -10.09940 -10.08489 -10.07986
  Beta  occ. eigenvalues --  -10.06599 -10.06446  -7.87512  -7.86453  -5.89339
  Beta  occ. eigenvalues --   -5.88838  -5.88408  -5.88281  -5.87757  -5.87384
  Beta  occ. eigenvalues --   -1.16257  -0.99623  -0.97416  -0.87031  -0.85387
  Beta  occ. eigenvalues --   -0.82920  -0.81117  -0.78047  -0.69473  -0.67468
  Beta  occ. eigenvalues --   -0.64916  -0.63686  -0.61741  -0.57544  -0.57343
  Beta  occ. eigenvalues --   -0.55642  -0.53742  -0.51115  -0.50359  -0.49076
  Beta  occ. eigenvalues --   -0.48014  -0.47632  -0.46089  -0.44630  -0.43255
  Beta  occ. eigenvalues --   -0.42631  -0.41156  -0.37006  -0.33393  -0.32575
  Beta  occ. eigenvalues --   -0.27454
  Beta virt. eigenvalues --    0.03060   0.09527   0.11420   0.13482   0.14597
  Beta virt. eigenvalues --    0.14688   0.15832   0.17150   0.17555   0.18299
  Beta virt. eigenvalues --    0.19585   0.20481   0.21785   0.22092   0.23423

 Mulliken charges and spin densities:
               1          2
     1  C   -0.142932  -0.000000
     2  C    0.058441   0.000000
     3  C   -0.014006  -0.000000
     4  C   -0.099160  -0.000000
     5  S    0.163778   0.000000
     6  C   -0.154802   0.000000
     7  C    0.129631  -0.000000
     8  O   -0.252398   0.000000
     9  C    0.055104   0.000000
    10  C    0.021792  -0.000000
    11  C   -0.127359   0.000000
    12  S    0.160022  -0.000000
    13  H    0.025849  -0.000000
    14  H   -0.007426  -0.000000
    15  H   -0.002859  -0.000000
    16  H    0.046597   0.000000
    17  H    0.046596  -0.000000
    18  H    0.058795   0.000000
    19  H    0.001986   0.000000
    20  H    0.032351   0.000000
 Sum of Mulliken charges =  -0.00000  -0.00000

 Dipole moment (field-independent basis, Debye):
    X=              1.9997    Y=              0.9728    Z=             -0.0002  Tot=              2.2237
 Quadrupole moment (field-independent basis, Debye-Ang):
   XX=            -68.5297   YY=            -74.2837   ZZ=            -88.3792
   XY=              3.2347   XZ=              0.0000   YZ=              0.0000

 Normal termination of Gaussian 16 at Sat Jul 25 01:45:25 2020.
