 Gaussian 16, Revision A.03,
 Gaussian 16:  EM64L-G16RevA.03 25-Dec-2016

 ---------------------------------------------------------------
 #P uLC-wPBE/cc-pVDZ iop(3/107=0257600000, 3/108=0257600000) opt
 ---------------------------------------------------------------

 --------------
 H30 C70 S7 F14
 --------------
 Symbolic Z-matrix:
 Charge =  0 Multiplicity = 1

 SCF Done:  E(ULC-wPBE) =  -6866.56212486     A.U. after   17 cycles
 SCF Done:  E(ULC-wPBE) =  -6866.65227195     A.U. after   13 cycles
 SCF Done:  E(ULC-wPBE) =  -6866.73464018     A.U. after   14 cycles
 SCF Done:  E(ULC-wPBE) =  -6866.75585550     A.U. after   13 cycles
 SCF Done:  E(ULC-wPBE) =  -6866.76224350     A.U. after   13 cycles
 SCF Done:  E(ULC-wPBE) =  -6866.76500679     A.U. after   17 cycles
 SCF Done:  E(ULC-wPBE) =  -6866.76509707     A.U. after   18 cycles
 SCF Done:  E(ULC-wPBE) =  -6866.76677510     A.U. after   14 cycles
 SCF Done:  E(ULC-wPBE) =  -6866.76829425     A.U. after   17 cycles
 SCF Done:  E(ULC-wPBE) =  -6866.76907683     A.U. after   17 cycles
 SCF Done:  E(ULC-wPBE) =  -6866.76934392     A.U. after   10 cycles
 SCF Done:  E(ULC-wPBE) =  -6866.76934430     A.U. after    7 cycles
 SCF Done:  E(ULC-wPBE) =  -6866.76934472     A.U. after    8 cycles
 SCF Done:  E(ULC-wPBE) =  -6866.76934507     A.U. after    8 cycles
 SCF Done:  E(ULC-wPBE) =  -6866.76934522     A.U. after    7 cycles
 SCF Done:  E(ULC-wPBE) =  -6866.76934512     A.U. after    6 cycles
 SCF Done:  E(ULC-wPBE) =  -6866.76934516     A.U. after    7 cycles
 SCF Done:  E(ULC-wPBE) =  -6866.76934514     A.U. after    6 cycles
 SCF Done:  E(ULC-wPBE) =  -6866.76934517     A.U. after    6 cycles
 SCF Done:  E(ULC-wPBE) =  -6866.76934511     A.U. after    6 cycles
 Optimization completed on the basis of negligible forces.
    -- Stationary point found.

                         Standard orientation:
 ---------------------------------------------------------------------
 Center     Atomic      Atomic             Coordinates (Angstroms)
 Number     Number       Type             X           Y           Z
 ---------------------------------------------------------------------
      1          6           0      -23.324348    7.803827   -0.277672
      2          6           0      -22.051954    7.591267    0.250224
      3          6           0      -21.518960    6.309224    0.221031
      4          9           0      -20.280584    6.132473    0.731761
      5          6           0      -22.186511    5.191990   -0.310450
      6          6           0      -23.462724    5.473197   -0.832208
      7          9           0      -24.181306    4.468157   -1.376906
      8          6           0      -24.037083    6.738242   -0.825098
      9          6           0      -21.610537    3.834831   -0.324254
     10          6           0      -22.279414    2.628916   -0.412835
     11          6           0      -21.413511    1.505759   -0.441616
     12          6           0      -20.079959    1.846964   -0.382518
     13         16           0      -19.890410    3.565498   -0.280355
     14          6           0      -18.911934    0.949794   -0.382238
     15          6           0      -18.983494   -0.302748   -1.008965
     16          6           0      -17.885281   -1.148881   -0.993500
     17          9           0      -18.017641   -2.336148   -1.623049
     18          6           0      -16.656965   -0.835868   -0.382006
     19          6           0      -16.634284    0.434075    0.219843
     20          9           0      -15.496643    0.834117    0.828661
     21          6           0      -17.707706    1.311208    0.238027
     22          6           0      -15.510939   -1.760496   -0.379878
     23          6           0      -15.520163   -3.127350   -0.587107
     24          6           0      -14.227686   -3.710225   -0.556257
     25          6           0      -13.223788   -2.793612   -0.331629
     26         16           0      -13.877464   -1.200262   -0.148191
     27          6           0      -11.775494   -3.039924   -0.228721
     28          6           0      -10.941782   -2.212919    0.537205
     29          6           0       -9.584328   -2.484309    0.611751
     30          9           0       -8.826328   -1.653466    1.360163
     31          6           0       -8.953823   -3.562948   -0.032109
     32          6           0       -9.832214   -4.359136   -0.790544
     33          9           0       -9.334760   -5.413597   -1.471813
     34          6           0      -11.193959   -4.123903   -0.902269
     35          6           0       -7.511947   -3.844116    0.069170
     36          6           0       -6.857406   -5.034842   -0.186088
     37          6           0       -5.450763   -4.949387   -0.027315
     38          6           0       -5.021423   -3.693894    0.343854
     39         16           0       -6.362501   -2.610097    0.507210
     40          6           0       -3.642747   -3.245996    0.603964
     41          6           0       -3.365823   -2.198147    1.493504
     42          6           0       -2.053976   -1.807513    1.717547
     43          9           0       -1.857023   -0.789830    2.582284
     44          6           0       -0.937475   -2.409222    1.108691
     45          6           0       -1.270231   -3.450575    0.224612
     46          9           0       -0.269066   -4.079892   -0.429453
     47          6           0       -2.564399   -3.869901   -0.039725
     48          6           0        0.444698   -1.979904    1.380468
     49          6           0        0.916392   -1.269289    2.468452
     50          6           0        2.304419   -0.987001    2.397705
     51          6           0        2.900195   -1.473652    1.254654
     52         16           0        1.742561   -2.294095    0.261215
     53          6           0        4.313987   -1.374974    0.854300
     54          6           0        5.102354   -0.305564    1.302977
     55          6           0        6.435035   -0.230151    0.930342
     56          9           0        7.150422    0.817840    1.395033
     57          6           0        7.081787   -1.162812    0.100554
     58          6           0        6.248829   -2.214624   -0.322716
     59          9           0        6.766409   -3.181119   -1.110377
     60          6           0        4.913080   -2.337862    0.029647
     61          6           0        8.495265   -1.057647   -0.298475
     62          6           0        9.122351   -1.658004   -1.374300
     63          6           0       10.510357   -1.375810   -1.446254
     64          6           0       10.953443   -0.564574   -0.424540
     65         16           0        9.647495   -0.137934    0.630215
     66          6           0       12.318515   -0.064803   -0.188233
     67          6           0       13.426609   -0.799241   -0.634306
     68          6           0       14.706197   -0.312782   -0.418008
     69          9           0       15.737497   -1.058052   -0.872896
     70          6           0       14.996410    0.892326    0.245536
     71          6           0       13.852179    1.590356    0.673199
     72          9           0       14.006905    2.771930    1.307669
     73          6           0       12.552533    1.148965    0.473539
     74          6           0       16.363720    1.385772    0.480494
     75          6           0       16.784719    2.312082    1.416274
     76          6           0       18.173656    2.591163    1.347229
     77          6           0       18.820881    1.886160    0.356200
     78         16           0       17.711008    0.863667   -0.493727
     79          6           0       20.250919    1.917432    0.003787
     80          6           0       20.892619    0.806423   -0.561242
     81          6           0       22.242685    0.871154   -0.874243
     82          9           0       22.801878   -0.236760   -1.405955
     83          6           0       23.048447    2.003536   -0.658797
     84          6           0       22.358849    3.085718   -0.085217
     85          9           0       23.044662    4.222418    0.165597
     86          6           0       21.010757    3.072217    0.238038
     87          6           0       24.478985    2.040679   -1.009973
     88          6           0       25.148440    1.250057   -1.924205
     89          6           0       26.542943    1.523665   -1.991646
     90          6           0       26.924957    2.512084   -1.121911
     91         16           0       25.594216    3.131701   -0.229812
     92          1           0      -23.762916    8.807468   -0.264402
     93          1           0      -21.456491    8.398410    0.687668
     94          1           0      -25.035744    6.862394   -1.255084
     95          1           0      -23.367291    2.554225   -0.447671
     96          1           0      -21.766990    0.470997   -0.475631
     97          1           0      -19.881525   -0.630698   -1.540727
     98          1           0      -17.587642    2.266174    0.759627
     99          1           0      -16.435910   -3.697711   -0.748301
    100          1           0      -14.046350   -4.783331   -0.667615
    101          1           0      -11.331274   -1.359574    1.101600
    102          1           0      -11.782097   -4.786257   -1.544257
    103          1           0       -7.378148   -5.949753   -0.471847
    104          1           0       -4.775751   -5.800775   -0.155215
    105          1           0       -4.159605   -1.676623    2.038063
    106          1           0       -2.711856   -4.672418   -0.768255
    107          1           0        0.280481   -0.966873    3.301552
    108          1           0        2.854855   -0.463583    3.185036
    109          1           0        4.691485    0.493864    1.926411
    110          1           0        4.361785   -3.210520   -0.335280
    111          1           0        8.594080   -2.278761   -2.099252
    112          1           0       11.159530   -1.738291   -2.248758
    113          1           0       13.316223   -1.766352   -1.133417
    114          1           0       11.732487    1.783397    0.825217
    115          1           0       16.111807    2.772240    2.141152
    116          1           0       18.687802    3.272856    2.031166
    117          1           0       20.363941   -0.134144   -0.747067
    118          1           0       20.566225    3.982588    0.650754
    119          1           0       24.648952    0.493937   -2.532135
    120          1           0       27.234872    1.005127   -2.661667
    121          1           0       27.923695    2.926842   -0.965511
 ---------------------------------------------------------------------

 Alpha  occ. eigenvalues --   -0.45766  -0.45562  -0.45411  -0.45248  -0.45150
 Alpha  occ. eigenvalues --   -0.45094  -0.44899  -0.44436  -0.44255  -0.44213
 Alpha  occ. eigenvalues --   -0.44120  -0.44032  -0.43911  -0.43747  -0.42377
 Alpha  occ. eigenvalues --   -0.42260  -0.42185  -0.42163  -0.42014  -0.41750
 Alpha  occ. eigenvalues --   -0.41366  -0.40696  -0.40152  -0.39398  -0.38557
 Alpha  occ. eigenvalues --   -0.37603  -0.36665  -0.35937  -0.34541  -0.34487
 Alpha  occ. eigenvalues --   -0.34425  -0.34336  -0.34220  -0.34180  -0.34136
 Alpha  occ. eigenvalues --   -0.34096  -0.34029  -0.33960  -0.33936  -0.33789
 Alpha  occ. eigenvalues --   -0.33389  -0.33055  -0.32878  -0.31894  -0.30744
 Alpha  occ. eigenvalues --   -0.29577  -0.28485  -0.27605  -0.27009
 Alpha virt. eigenvalues --   -0.03031  -0.02329  -0.01363  -0.00225   0.01014
 Alpha virt. eigenvalues --    0.02261   0.03364   0.04645   0.04762   0.04822
 Alpha virt. eigenvalues --    0.04927   0.04956   0.05018   0.05114   0.05524

  Beta  occ. eigenvalues --  -88.25494 -88.25429 -88.25364 -88.25287 -88.25184
  Beta  occ. eigenvalues --  -88.24926 -88.24125 -24.44881 -24.44857 -24.44817
  Beta  occ. eigenvalues --  -24.44785 -24.44779 -24.44739 -24.44719 -24.44679
  Beta  occ. eigenvalues --  -24.44618 -24.44529 -24.44507 -24.44366 -24.43968
  Beta  occ. eigenvalues --  -24.43858 -10.14998 -10.14948 -10.14931 -10.14930
  Beta  occ. eigenvalues --  -10.14890 -10.14883 -10.14852 -10.14820 -10.14761
  Beta  occ. eigenvalues --  -10.14730 -10.14596 -10.14562 -10.14095 -10.14060
  Beta  occ. eigenvalues --  -10.09744 -10.09725 -10.09662 -10.09579 -10.09469
  Beta  occ. eigenvalues --  -10.09237 -10.09215 -10.09169 -10.09117 -10.09101
  Beta  occ. eigenvalues --  -10.09054 -10.09045 -10.09015 -10.08977 -10.08975
  Beta  occ. eigenvalues --  -10.08909 -10.08897 -10.08860 -10.08836 -10.08794
  Beta  occ. eigenvalues --  -10.08743 -10.08579 -10.08531 -10.08427 -10.08320
  Beta  occ. eigenvalues --  -10.08056 -10.07689 -10.06851 -10.06741 -10.06730
  Beta  occ. eigenvalues --  -10.06724 -10.06717 -10.06656 -10.06649 -10.06596
  Beta  occ. eigenvalues --  -10.06571 -10.06510 -10.06488 -10.06363 -10.06343
  Beta  occ. eigenvalues --  -10.06034 -10.05972 -10.05949 -10.05942 -10.05933
  Beta  occ. eigenvalues --  -10.05905 -10.05871 -10.05819 -10.05804 -10.05716
  Beta  occ. eigenvalues --  -10.05706 -10.05621 -10.05427 -10.05391 -10.04634
  Beta  occ. eigenvalues --  -10.04595  -7.85952  -7.85883  -7.85819  -7.85742
  Beta  occ. eigenvalues --   -7.85639  -7.85381  -7.84588  -5.87882  -5.87814
  Beta  occ. eigenvalues --   -5.87750  -5.87673  -5.87570  -5.87380  -5.87312
  Beta  occ. eigenvalues --   -5.87311  -5.87247  -5.87171  -5.87068  -5.86995
  Beta  occ. eigenvalues --   -5.86926  -5.86861  -5.86810  -5.86785  -5.86682
  Beta  occ. eigenvalues --   -5.86511  -5.86424  -5.86006  -5.85650  -1.28901
  Beta  occ. eigenvalues --   -1.28863  -1.28836  -1.28793  -1.28783  -1.28746
  Beta  occ. eigenvalues --   -1.28728  -1.28686  -1.28641  -1.28551  -1.28516
  Beta  occ. eigenvalues --   -1.28385  -1.27987  -1.27873  -0.98655  -0.98502
  Beta  occ. eigenvalues --   -0.98344  -0.98167  -0.97978  -0.97728  -0.96766
  Beta  occ. eigenvalues --   -0.96614  -0.96376  -0.96017  -0.95651  -0.95326
  Beta  occ. eigenvalues --   -0.95071  -0.94628  -0.90119  -0.89661  -0.89065
  Beta  occ. eigenvalues --   -0.88372  -0.87627  -0.86912  -0.86565  -0.84709
  Beta  occ. eigenvalues --   -0.84641  -0.84572  -0.84489  -0.84417  -0.84335
  Beta  occ. eigenvalues --   -0.83900  -0.83637  -0.83005  -0.82754  -0.82668
  Beta  occ. eigenvalues --   -0.82586  -0.82555  -0.82251  -0.82164  -0.81583
  Beta  occ. eigenvalues --   -0.81348  -0.80630  -0.79603  -0.78609  -0.77728
  Beta  occ. eigenvalues --   -0.75194  -0.74351  -0.73504  -0.72817  -0.72702
  Beta  occ. eigenvalues --   -0.72353  -0.72236  -0.72160  -0.71914  -0.71833
  Beta  occ. eigenvalues --   -0.71480  -0.71372  -0.71141  -0.70663  -0.67230
  Beta  occ. eigenvalues --   -0.67069  -0.67019  -0.66859  -0.66660  -0.66529
  Beta  occ. eigenvalues --   -0.66245  -0.66045  -0.65712  -0.65456  -0.65283
  Beta  occ. eigenvalues --   -0.65131  -0.64619  -0.64105  -0.64021  -0.62800
  Beta  occ. eigenvalues --   -0.62635  -0.62457  -0.62344  -0.62209  -0.61856
  Beta  occ. eigenvalues --   -0.61064  -0.60985  -0.60823  -0.60723  -0.60531
  Beta  occ. eigenvalues --   -0.60343  -0.59921  -0.59913  -0.59739  -0.59673
  Beta  occ. eigenvalues --   -0.59495  -0.59281  -0.59147  -0.58838  -0.58200
  Beta  occ. eigenvalues --   -0.58005  -0.57852  -0.57834  -0.57782  -0.57651
  Beta  occ. eigenvalues --   -0.57264  -0.57257  -0.57039  -0.56949  -0.56926
  Beta  occ. eigenvalues --   -0.56845  -0.56809  -0.56623  -0.56470  -0.56152
  Beta  occ. eigenvalues --   -0.56057  -0.55524  -0.54964  -0.54830  -0.54807
  Beta  occ. eigenvalues --   -0.54754  -0.54670  -0.54628  -0.54463  -0.54113
  Beta  occ. eigenvalues --   -0.53938  -0.53585  -0.52610  -0.52015  -0.51986
  Beta  occ. eigenvalues --   -0.51831  -0.51660  -0.51459  -0.51200  -0.50866
  Beta  occ. eigenvalues --   -0.50433  -0.50133  -0.49993  -0.49889  -0.49698
  Beta  occ. eigenvalues --   -0.49680  -0.49660  -0.49576  -0.49495  -0.49356
  Beta  occ. eigenvalues --   -0.49295  -0.49210  -0.48896  -0.48877  -0.48545
  Beta  occ. eigenvalues --   -0.48490  -0.48379  -0.48174  -0.47928  -0.47876
  Beta  occ. eigenvalues --   -0.47783  -0.47747  -0.47675  -0.47564  -0.47327
  Beta  occ. eigenvalues --   -0.47200  -0.47142  -0.46534  -0.46409  -0.46390
  Beta  occ. eigenvalues --   -0.46297  -0.46113  -0.46073  -0.46009  -0.45858
  Beta  occ. eigenvalues --   -0.45766  -0.45562  -0.45411  -0.45248  -0.45150
  Beta  occ. eigenvalues --   -0.45094  -0.44899  -0.44436  -0.44255  -0.44213
  Beta  occ. eigenvalues --   -0.44120  -0.44032  -0.43911  -0.43747  -0.42377
  Beta  occ. eigenvalues --   -0.42260  -0.42185  -0.42163  -0.42014  -0.41750
  Beta  occ. eigenvalues --   -0.41366  -0.40696  -0.40152  -0.39398  -0.38557
  Beta  occ. eigenvalues --   -0.37603  -0.36665  -0.35937  -0.34541  -0.34487
  Beta  occ. eigenvalues --   -0.34425  -0.34336  -0.34220  -0.34180  -0.34136
  Beta  occ. eigenvalues --   -0.34096  -0.34029  -0.33960  -0.33936  -0.33789
  Beta  occ. eigenvalues --   -0.33389  -0.33055  -0.32878  -0.31894  -0.30744
  Beta  occ. eigenvalues --   -0.29577  -0.28485  -0.27605  -0.27009
  Beta virt. eigenvalues --   -0.03031  -0.02329  -0.01363  -0.00225   0.01014
  Beta virt. eigenvalues --    0.02261   0.03364   0.04645   0.04762   0.04822
  Beta virt. eigenvalues --    0.04927   0.04956   0.05018   0.05114   0.05524

 Mulliken charges and spin densities:
               1          2
     1  C    0.040541  -0.000000
     2  C    0.021657  -0.000000
     3  C    0.088962   0.000000
     4  F   -0.120693  -0.000000
     5  C   -0.007294  -0.000000
     6  C    0.079899  -0.000000
     7  F   -0.122793  -0.000000
     8  C    0.019917   0.000000
     9  C   -0.133395  -0.000000
    10  C    0.042440  -0.000000
    11  C    0.034906   0.000000
    12  C   -0.152770   0.000000
    13  S    0.178669  -0.000000
    14  C    0.087213  -0.000000
    15  C    0.004687  -0.000000
    16  C    0.086162  -0.000000
    17  F   -0.122336   0.000000
    18  C    0.004117   0.000000
    19  C    0.091656   0.000000
    20  F   -0.119275  -0.000000
    21  C    0.008702  -0.000000
    22  C   -0.133061  -0.000000
    23  C    0.036910  -0.000000
    24  C    0.037176   0.000000
    25  C   -0.153140  -0.000000
    26  S    0.177660   0.000000
    27  C    0.087105  -0.000000
    28  C    0.008674   0.000000
    29  C    0.091594   0.000000
    30  F   -0.119359  -0.000000
    31  C    0.004259  -0.000000
    32  C    0.086117  -0.000000
    33  F   -0.122344  -0.000000
    34  C    0.004692   0.000000
    35  C   -0.132969  -0.000000
    36  C    0.036480   0.000000
    37  C    0.038031   0.000000
    38  C   -0.153061  -0.000000
    39  S    0.177501   0.000000
    40  C    0.084673   0.000000
    41  C    0.007296  -0.000000
    42  C    0.085115   0.000000
    43  F   -0.121174  -0.000000
    44  C    0.000193   0.000000
    45  C    0.097209   0.000000
    46  F   -0.120434  -0.000000
    47  C    0.006388  -0.000000
    48  C   -0.132821  -0.000000
    49  C    0.037555  -0.000000
    50  C    0.036921   0.000000
    51  C   -0.152989   0.000000
    52  S    0.176127  -0.000000
    53  C    0.087475  -0.000000
    54  C    0.005595  -0.000000
    55  C    0.095521   0.000000
    56  F   -0.120344  -0.000000
    57  C    0.003141  -0.000000
    58  C    0.082711   0.000000
    59  F   -0.121394   0.000000
    60  C    0.006969  -0.000000
    61  C   -0.133091  -0.000000
    62  C    0.037341   0.000000
    63  C    0.037303   0.000000
    64  C   -0.152914  -0.000000
    65  S    0.175975  -0.000000
    66  C    0.086635   0.000000
    67  C    0.005679   0.000000
    68  C    0.095196  -0.000000
    69  F   -0.120308   0.000000
    70  C    0.003926  -0.000000
    71  C    0.082420  -0.000000
    72  F   -0.121581   0.000000
    73  C    0.007074   0.000000
    74  C   -0.133865   0.000000
    75  C    0.036627   0.000000
    76  C    0.037427  -0.000000
    77  C   -0.151988  -0.000000
    78  S    0.175367  -0.000000
    79  C    0.084535  -0.000000
    80  C    0.004940   0.000000
    81  C    0.084360  -0.000000
    82  F   -0.122156   0.000000
    83  C    0.006809  -0.000000
    84  C    0.098462  -0.000000
    85  F   -0.120688  -0.000000
    86  C    0.003026   0.000000
    87  C   -0.141712   0.000000
    88  C    0.009750  -0.000000
    89  C    0.063461  -0.000000
    90  C   -0.131303  -0.000000
    91  S    0.167469   0.000000
    92  H    0.006003   0.000000
    93  H    0.009132   0.000000
    94  H    0.009104  -0.000000
    95  H   -0.004023  -0.000000
    96  H   -0.008023   0.000000
    97  H   -0.001200  -0.000000
    98  H    0.007629  -0.000000
    99  H   -0.004352  -0.000000
   100  H   -0.008238   0.000000
   101  H    0.007738   0.000000
   102  H   -0.001236   0.000000
   103  H   -0.004271   0.000000
   104  H   -0.007918   0.000000
   105  H    0.007570   0.000000
   106  H   -0.001222  -0.000000
   107  H   -0.003816   0.000000
   108  H   -0.007727  -0.000000
   109  H   -0.001414   0.000000
   110  H    0.007281   0.000000
   111  H   -0.003957  -0.000000
   112  H   -0.007821   0.000000
   113  H   -0.001740  -0.000000
   114  H    0.006917  -0.000000
   115  H   -0.004637   0.000000
   116  H   -0.008507  -0.000000
   117  H    0.005415  -0.000000
   118  H   -0.003161  -0.000000
   119  H   -0.003984   0.000000
   120  H   -0.007689  -0.000000
   121  H    0.026996   0.000000
 Sum of Mulliken charges =  -0.00000   0.00000

 Dipole moment (field-independent basis, Debye):
    X=            -10.8180    Y=              0.4236    Z=              0.0686  Tot=             10.8265
 Quadrupole moment (field-independent basis, Debye-Ang):
   XX=           -448.6998   YY=           -511.4622   ZZ=           -551.9915
   XY=            -47.7407   XZ=              0.8582   YZ=             14.1706

 Normal termination of Gaussian 16 at Fri Jul 24 06:36:18 2020.
