 Gaussian 16, Revision A.03,
 Gaussian 16:  EM64L-G16RevA.03 25-Dec-2016

 ---------------------------------------------------------------
 #P uLC-wPBE/cc-pVDZ iop(3/107=0314300000, 3/108=0314300000) opt
 ---------------------------------------------------------------

 ---------------
 H9 C10 S1 N1 O1
 ---------------
 Symbolic Z-matrix:
 Charge =  0 Multiplicity = 1

 SCF Done:  E(ULC-wPBE) =  -914.104779937     A.U. after   16 cycles
 SCF Done:  E(ULC-wPBE) =  -914.135136644     A.U. after   15 cycles
 SCF Done:  E(ULC-wPBE) =  -914.142976763     A.U. after   15 cycles
 SCF Done:  E(ULC-wPBE) =  -914.144609942     A.U. after   14 cycles
 SCF Done:  E(ULC-wPBE) =  -914.146372125     A.U. after   16 cycles
 SCF Done:  E(ULC-wPBE) =  -914.146951475     A.U. after   14 cycles
 SCF Done:  E(ULC-wPBE) =  -914.147191329     A.U. after   14 cycles
 SCF Done:  E(ULC-wPBE) =  -914.147271506     A.U. after   13 cycles
 SCF Done:  E(ULC-wPBE) =  -914.147288805     A.U. after   12 cycles
 SCF Done:  E(ULC-wPBE) =  -914.147290056     A.U. after    9 cycles
 SCF Done:  E(ULC-wPBE) =  -914.147290252     A.U. after    8 cycles
 Optimization completed.
    -- Stationary point found.

                         Standard orientation:
 ---------------------------------------------------------------------
 Center     Atomic      Atomic             Coordinates (Angstroms)
 Number     Number       Type             X           Y           Z
 ---------------------------------------------------------------------
      1          6           0       -3.189143   -1.070829   -0.000154
      2          6           0       -2.314953   -2.153846    0.000044
      3          6           0       -0.943826   -1.923520    0.000045
      4          6           0       -0.420586   -0.626438   -0.000086
      5          6           0       -1.318902    0.459164   -0.000247
      6          8           0       -0.759629    1.697798   -0.000295
      7          6           0       -1.608610    2.828521    0.000824
      8          6           0       -2.697644    0.232740   -0.000306
      9          6           0        1.049995   -0.472619    0.000013
     10          7           0        1.843180   -1.514755    0.000447
     11          6           0        3.157880   -1.138352    0.000449
     12          6           0        3.388660    0.205878   -0.000115
     13         16           0        1.894613    1.051739   -0.000441
     14          1           0       -4.271685   -1.233363   -0.000229
     15          1           0       -2.698655   -3.178043    0.000180
     16          1           0       -0.227878   -2.749586    0.000154
     17          1           0       -2.246784    2.855104    0.902745
     18          1           0       -0.945429    3.704853    0.001610
     19          1           0       -2.246913    2.856755   -0.900955
     20          1           0       -3.396287    1.071898   -0.000488
     21          1           0        3.932757   -1.909086    0.000893
     22          1           0        4.344607    0.730354   -0.000436
 ---------------------------------------------------------------------

 The electronic state is 1-A.
 Alpha  occ. eigenvalues --  -88.27316 -18.98206 -14.16184 -10.14369 -10.13693
 Alpha  occ. eigenvalues --  -10.13614 -10.09553 -10.09495 -10.08949 -10.08348
 Alpha  occ. eigenvalues --  -10.07947 -10.07653 -10.07146  -7.87870  -5.89645
 Alpha  occ. eigenvalues --   -5.89140  -5.88819  -1.17377  -1.06089  -0.96725
 Alpha  occ. eigenvalues --   -0.90021  -0.88946  -0.86212  -0.82898  -0.80615
 Alpha  occ. eigenvalues --   -0.72962  -0.70925  -0.68014  -0.65814  -0.63054
 Alpha  occ. eigenvalues --   -0.60168  -0.58849  -0.58346  -0.56979  -0.54580
 Alpha  occ. eigenvalues --   -0.52716  -0.52248  -0.51199  -0.49979  -0.48915
 Alpha  occ. eigenvalues --   -0.47717  -0.45316  -0.44287  -0.43036  -0.41783
 Alpha  occ. eigenvalues --   -0.38479  -0.36292  -0.35928  -0.32831  -0.29965
 Alpha virt. eigenvalues --    0.02517   0.07890   0.10235   0.13190   0.14411
 Alpha virt. eigenvalues --    0.15011   0.16348   0.17325   0.18010   0.20477
 Alpha virt. eigenvalues --    0.20939   0.21124   0.21374   0.23192   0.24298

  Beta  occ. eigenvalues --  -88.27316 -18.98206 -14.16184 -10.14369 -10.13693
  Beta  occ. eigenvalues --  -10.13614 -10.09553 -10.09495 -10.08949 -10.08348
  Beta  occ. eigenvalues --  -10.07947 -10.07653 -10.07146  -7.87870  -5.89645
  Beta  occ. eigenvalues --   -5.89140  -5.88819  -1.17377  -1.06089  -0.96725
  Beta  occ. eigenvalues --   -0.90021  -0.88946  -0.86212  -0.82898  -0.80615
  Beta  occ. eigenvalues --   -0.72962  -0.70925  -0.68014  -0.65814  -0.63054
  Beta  occ. eigenvalues --   -0.60168  -0.58849  -0.58346  -0.56979  -0.54580
  Beta  occ. eigenvalues --   -0.52716  -0.52248  -0.51199  -0.49979  -0.48915
  Beta  occ. eigenvalues --   -0.47717  -0.45316  -0.44287  -0.43036  -0.41783
  Beta  occ. eigenvalues --   -0.38479  -0.36292  -0.35928  -0.32831  -0.29965
  Beta virt. eigenvalues --    0.02517   0.07890   0.10235   0.13190   0.14411
  Beta virt. eigenvalues --    0.15011   0.16348   0.17325   0.18010   0.20477
  Beta virt. eigenvalues --    0.20939   0.21124   0.21374   0.23192   0.24298

 Mulliken charges and spin densities:
               1          2
     1  C    0.021414  -0.000000
     2  C    0.023112   0.000000
     3  C    0.048266  -0.000000
     4  C   -0.043829   0.000000
     5  C    0.098697  -0.000000
     6  O   -0.263897   0.000000
     7  C    0.058176   0.000000
     8  C   -0.037359  -0.000000
     9  C    0.007079   0.000000
    10  N   -0.191477   0.000000
    11  C    0.117927  -0.000000
    12  C   -0.187907   0.000000
    13  S    0.167644  -0.000000
    14  H   -0.004679  -0.000000
    15  H   -0.006623  -0.000000
    16  H   -0.003673  -0.000000
    17  H    0.050831  -0.000000
    18  H    0.059839  -0.000000
    19  H    0.050830  -0.000000
    20  H   -0.002439  -0.000000
    21  H    0.006708   0.000000
    22  H    0.031359  -0.000000
 Sum of Mulliken charges =  -0.00000  -0.00000

 Dipole moment (field-independent basis, Debye):
    X=             -1.3406    Y=              2.4099    Z=              0.0009  Tot=              2.7576
 Quadrupole moment (field-independent basis, Debye-Ang):
   XX=            -67.9009   YY=            -73.8851   ZZ=            -85.9475
   XY=             -1.6405   XZ=             -0.0016   YZ=              0.0028

 Normal termination of Gaussian 16 at Fri Jul 24 01:52:26 2020.
