 Gaussian 16, Revision A.03,
 Gaussian 16:  EM64L-G16RevA.03 25-Dec-2016

 ---------------------------------------------------------------
 #P uLC-wPBE/cc-pVDZ iop(3/107=0380100000, 3/108=0380100000) opt
 ---------------------------------------------------------------

 --------------
 H37 C77 N7 F14
 --------------
 Symbolic Z-matrix:
 Charge =  0 Multiplicity = 1

 SCF Done:  E(ULC-wPBE) =  -4734.24341991     A.U. after   16 cycles
 SCF Done:  E(ULC-wPBE) =  -4734.34532516     A.U. after   13 cycles
 SCF Done:  E(ULC-wPBE) =  -4734.45087559     A.U. after   14 cycles
 SCF Done:  E(ULC-wPBE) =  -4734.48076605     A.U. after   14 cycles
 SCF Done:  E(ULC-wPBE) =  -4734.48807175     A.U. after   15 cycles
 SCF Done:  E(ULC-wPBE) =  -4734.49009013     A.U. after   14 cycles
 SCF Done:  E(ULC-wPBE) =  -4734.49254778     A.U. after   14 cycles
 SCF Done:  E(ULC-wPBE) =  -4734.49277910     A.U. after   13 cycles
 SCF Done:  E(ULC-wPBE) =  -4734.49406877     A.U. after   13 cycles
 SCF Done:  E(ULC-wPBE) =  -4734.49439999     A.U. after   13 cycles
 SCF Done:  E(ULC-wPBE) =  -4734.49463098     A.U. after   12 cycles
 SCF Done:  E(ULC-wPBE) =  -4734.49471837     A.U. after   12 cycles
 SCF Done:  E(ULC-wPBE) =  -4734.49472687     A.U. after   10 cycles
 SCF Done:  E(ULC-wPBE) =  -4734.49472857     A.U. after   11 cycles
 SCF Done:  E(ULC-wPBE) =  -4734.49472931     A.U. after    7 cycles
 SCF Done:  E(ULC-wPBE) =  -4734.49472936     A.U. after    7 cycles
 SCF Done:  E(ULC-wPBE) =  -4734.49472934     A.U. after    6 cycles
 SCF Done:  E(ULC-wPBE) =  -4734.49472932     A.U. after    6 cycles
 SCF Done:  E(ULC-wPBE) =  -4734.49472931     A.U. after    6 cycles
 Optimization completed on the basis of negligible forces.
    -- Stationary point found.

                         Standard orientation:
 ---------------------------------------------------------------------
 Center     Atomic      Atomic             Coordinates (Angstroms)
 Number     Number       Type             X           Y           Z
 ---------------------------------------------------------------------
      1          6           0       28.803919   -2.563369   -0.589333
      2          6           0       28.315254   -2.138728    0.636731
      3          6           0       26.970701   -1.833537    0.719092
      4          9           0       26.463206   -1.422944    1.892151
      5          6           0       26.139511   -1.949417   -0.394218
      6          7           0       26.625362   -2.360932   -1.566006
      7          6           0       27.917378   -2.657236   -1.656034
      8          6           0       24.693820   -1.615603   -0.319621
      9          6           0       24.239288   -0.424963    0.248012
     10          6           0       22.890630   -0.104198    0.276442
     11          6           0       21.943170   -0.979115   -0.259081
     12          6           0       22.379947   -2.179579   -0.816800
     13          6           0       23.730832   -2.477541   -0.838267
     14          9           0       24.105459   -3.648124   -1.365657
     15          6           0       20.498467   -0.646182   -0.232011
     16          6           0       20.040772    0.638440   -0.510509
     17          6           0       18.682187    0.875134   -0.466479
     18          9           0       18.229137    2.109587   -0.736716
     19          6           0       17.783264   -0.142717   -0.153999
     20          7           0       18.229062   -1.369432    0.119465
     21          6           0       19.533025   -1.607011    0.081476
     22          6           0       16.317959    0.092709   -0.120462
     23          6           0       15.653863    0.760219   -1.150216
     24          6           0       14.279711    0.943375   -1.127073
     25          6           0       13.519270    0.466907   -0.057162
     26          6           0       14.169419   -0.191374    0.985558
     27          6           0       15.541036   -0.366029    0.940790
     28          9           0       16.129179   -0.970702    1.978459
     29          6           0       12.049068    0.655817   -0.023733
     30          6           0       11.457085    1.849229   -0.427355
     31          6           0       10.082390    1.952102   -0.370715
     32          9           0        9.501360    3.102569   -0.745718
     33          6           0        9.298500    0.891235    0.078767
     34          7           0        9.871778   -0.250677    0.460607
     35          6           0       11.192245   -0.360175    0.408845
     36          6           0        7.818436    0.986867    0.142971
     37          6           0        7.062871    1.472442   -0.924703
     38          6           0        5.678086    1.522756   -0.870371
     39          6           0        4.998866    1.092242    0.271172
     40          6           0        5.740235    0.617462    1.352032
     41          6           0        7.120524    0.572872    1.275174
     42          9           0        7.793225    0.129872    2.343099
     43          6           0        3.518515    1.141933    0.339239
     44          6           0        2.851092    1.549391    1.490794
     45          6           0        1.471616    1.572280    1.476643
     46          9           0        0.817412    1.975291    2.577070
     47          6           0        0.756570    1.198325    0.340492
     48          7           0        1.402030    0.804009   -0.757811
     49          6           0        2.727735    0.777029   -0.753926
     50          6           0       -0.727534    1.218408    0.310230
     51          6           0       -1.495283    0.654997    1.329777
     52          6           0       -2.880985    0.644792    1.273522
     53          6           0       -3.549202    1.213299    0.187252
     54          6           0       -2.796489    1.793249   -0.832811
     55          6           0       -1.415495    1.789078   -0.758196
     56          9           0       -0.732923    2.374430   -1.748637
     57          6           0       -5.030281    1.205330    0.117023
     58          6           0       -5.749650    2.308824   -0.332924
     59          6           0       -7.127015    2.230227   -0.367186
     60          9           0       -7.823707    3.268953   -0.841711
     61          6           0       -7.789032    1.080495    0.059695
     62          7           0       -7.093021    0.013964    0.456218
     63          6           0       -5.768177    0.076980    0.483593
     64          6           0       -9.266638    0.950978    0.033938
     65          6           0       -9.854152   -0.217195   -0.451602
     66          6           0      -11.230352   -0.376910   -0.479848
     67          6           0      -12.070280    0.634048   -0.004520
     68          6           0      -11.496647    1.796206    0.508527
     69          6           0      -10.120338    1.932799    0.525259
     70          9           0       -9.603768    3.041419    1.075752
     71          6           0      -13.544055    0.474094   -0.033019
     72          6           0      -14.388731    1.524959   -0.379442
     73          6           0      -15.750610    1.302089   -0.389949
     74          9           0      -16.571251    2.319105   -0.676260
     75          6           0      -16.272772    0.046715   -0.083437
     76          7           0      -15.460489   -0.945906    0.282884
     77          6           0      -14.150443   -0.738208    0.305568
     78          6           0      -17.728969   -0.236219   -0.079441
     79          6           0      -18.293925   -0.962447    0.969012
     80          6           0      -19.647873   -1.255682    0.998622
     81          6           0      -20.485720   -0.838381   -0.039437
     82          6           0      -19.930394   -0.135175   -1.107111
     83          6           0      -18.576199    0.146540   -1.113726
     84          9           0      -18.068873    0.777311   -2.183333
     85          6           0      -21.936544   -1.143787   -0.017110
     86          6           0      -22.887266   -0.207721   -0.414372
     87          6           0      -24.219377   -0.563208   -0.364359
     88          9           0      -25.144255    0.332850   -0.742543
     89          6           0      -24.612838   -1.826209    0.074847
     90          7           0      -23.696068   -2.720632    0.446090
     91          6           0      -22.412613   -2.389579    0.399811
     92          6           0      -26.044138   -2.214810    0.150900
     93          6           0      -26.995012   -1.397296    0.764234
     94          6           0      -28.324080   -1.786145    0.862268
     95          6           0      -28.727762   -3.007173    0.333604
     96          6           0      -27.804352   -3.832975   -0.292993
     97          6           0      -26.483121   -3.427265   -0.376087
     98          9           0      -25.613871   -4.225762   -1.008563
     99          1           0       29.857092   -2.818691   -0.716321
    100          1           0       28.945184   -2.044491    1.522685
    101          1           0       28.265348   -2.988858   -2.639102
    102          1           0       24.965800    0.266725    0.676912
    103          1           0       22.568762    0.829973    0.740445
    104          1           0       21.684425   -2.894314   -1.258995
    105          1           0       20.717568    1.452562   -0.775435
    106          1           0       19.840467   -2.627021    0.332750
    107          1           0       16.231415    1.131199   -1.998127
    108          1           0       13.789001    1.442104   -1.964936
    109          1           0       13.629126   -0.554007    1.861165
    110          1           0       12.044501    2.706853   -0.759748
    111          1           0       11.603948   -1.327380    0.713977
    112          1           0        7.577897    1.818677   -1.821888
    113          1           0        5.119419    1.921462   -1.718817
    114          1           0        5.261201    0.258106    2.264137
    115          1           0        3.381987    1.872702    2.387929
    116          1           0        3.201320    0.423927   -1.675288
    117          1           0       -0.989347    0.212060    2.188810
    118          1           0       -3.450808    0.207437    2.095124
    119          1           0       -3.265685    2.241808   -1.709835
    120          1           0       -5.260964    3.231269   -0.651467
    121          1           0       -5.251383   -0.834166    0.800558
    122          1           0       -9.196781   -1.008703   -0.814913
    123          1           0      -11.659790   -1.289469   -0.896884
    124          1           0      -12.102892    2.597391    0.933911
    125          1           0      -14.008486    2.512089   -0.648207
    126          1           0      -13.536772   -1.583911    0.631009
    127          1           0      -17.637047   -1.295006    1.774340
    128          1           0      -20.064704   -1.797833    1.849128
    129          1           0      -20.529451    0.173969   -1.964998
    130          1           0      -22.613276    0.794990   -0.747281
    131          1           0      -21.706487   -3.171062    0.697706
    132          1           0      -26.677194   -0.439472    1.179483
    133          1           0      -29.046663   -1.133161    1.354637
    134          1           0      -29.771191   -3.320918    0.405416
    135          1           0      -28.086577   -4.792566   -0.728148
 ---------------------------------------------------------------------

 Alpha virt. eigenvalues --    0.21249   0.21653   0.21718   0.21952   0.21972
 Alpha virt. eigenvalues --    0.22335   0.22739   0.22938   0.23049   0.23225
 Alpha virt. eigenvalues --    0.23698   0.23793   0.23821   0.23898   0.24022

  Beta  occ. eigenvalues --  -24.51095 -24.51052 -24.51017 -24.50941 -24.50607
  Beta  occ. eigenvalues --  -24.50471 -24.50380 -24.49935 -24.49734 -24.49634
  Beta  occ. eigenvalues --  -24.49618 -24.49582 -24.49582 -24.48559 -14.22406
  Beta  occ. eigenvalues --  -14.22259 -14.22241 -14.22213 -14.22200 -14.22056
  Beta  occ. eigenvalues --  -14.21571 -10.21473 -10.21446 -10.21424 -10.21316
  Beta  occ. eigenvalues --  -10.21306 -10.21167 -10.20858 -10.20848 -10.20841
  Beta  occ. eigenvalues --  -10.20834 -10.20822 -10.20791 -10.20636 -10.19662
  Beta  occ. eigenvalues --  -10.17383 -10.17365 -10.17343 -10.17328 -10.17286
  Beta  occ. eigenvalues --  -10.17143 -10.16677 -10.15796 -10.15789 -10.15760
  Beta  occ. eigenvalues --  -10.15747 -10.15663 -10.15642 -10.15192 -10.15110
  Beta  occ. eigenvalues --  -10.15083 -10.15070 -10.15034 -10.14922 -10.14917
  Beta  occ. eigenvalues --  -10.14909 -10.14901 -10.14888 -10.14807 -10.14806
  Beta  occ. eigenvalues --  -10.14782 -10.14779 -10.14762 -10.14648 -10.14559
  Beta  occ. eigenvalues --  -10.14520 -10.14515 -10.14216 -10.14131 -10.14117
  Beta  occ. eigenvalues --  -10.14095 -10.14085 -10.14003 -10.13944 -10.13736
  Beta  occ. eigenvalues --  -10.13680 -10.13658 -10.13630 -10.13609 -10.13281
  Beta  occ. eigenvalues --  -10.13115 -10.13086 -10.13076 -10.13072 -10.13070
  Beta  occ. eigenvalues --  -10.13060 -10.13037 -10.12939 -10.12926 -10.12852
  Beta  occ. eigenvalues --  -10.12836 -10.12829 -10.12698 -10.12508 -10.12479
  Beta  occ. eigenvalues --  -10.12466 -10.11832 -10.11613  -1.35735  -1.35698
  Beta  occ. eigenvalues --   -1.35668  -1.35581  -1.35550  -1.35403  -1.35031
  Beta  occ. eigenvalues --   -1.34526  -1.34473  -1.34455  -1.34435  -1.34428
  Beta  occ. eigenvalues --   -1.34330  -1.33348  -1.10760  -1.10726  -1.10695
  Beta  occ. eigenvalues --   -1.10666  -1.10610  -1.10447  -1.10043  -1.03522
  Beta  occ. eigenvalues --   -1.03389  -1.03207  -1.03019  -1.02853  -1.02675
  Beta  occ. eigenvalues --   -1.01267  -0.98667  -0.98370  -0.97966  -0.97550
  Beta  occ. eigenvalues --   -0.97198  -0.96876  -0.96306  -0.94708  -0.94546
  Beta  occ. eigenvalues --   -0.94361  -0.94140  -0.93877  -0.93522  -0.93110
  Beta  occ. eigenvalues --   -0.91700  -0.91004  -0.90471  -0.90308  -0.90281
  Beta  occ. eigenvalues --   -0.90238  -0.90118  -0.90000  -0.89755  -0.89025
  Beta  occ. eigenvalues --   -0.88757  -0.87875  -0.86969  -0.86271  -0.82868
  Beta  occ. eigenvalues --   -0.82035  -0.81049  -0.80116  -0.79928  -0.79609
  Beta  occ. eigenvalues --   -0.79326  -0.79107  -0.79000  -0.78778  -0.78691
  Beta  occ. eigenvalues --   -0.78347  -0.77630  -0.76997  -0.76568  -0.76257
  Beta  occ. eigenvalues --   -0.75887  -0.75664  -0.75361  -0.75180  -0.75083
  Beta  occ. eigenvalues --   -0.74755  -0.74432  -0.74091  -0.73837  -0.73619
  Beta  occ. eigenvalues --   -0.73504  -0.73147  -0.69826  -0.69626  -0.69490
  Beta  occ. eigenvalues --   -0.69312  -0.69176  -0.68693  -0.68567  -0.67541
  Beta  occ. eigenvalues --   -0.67255  -0.67022  -0.66913  -0.66749  -0.66588
  Beta  occ. eigenvalues --   -0.66359  -0.66142  -0.65990  -0.65688  -0.65487
  Beta  occ. eigenvalues --   -0.65372  -0.65346  -0.65136  -0.64079  -0.63942
  Beta  occ. eigenvalues --   -0.63819  -0.63586  -0.63505  -0.63440  -0.63290
  Beta  occ. eigenvalues --   -0.63037  -0.62822  -0.62687  -0.62597  -0.62370
  Beta  occ. eigenvalues --   -0.62248  -0.61816  -0.61705  -0.61488  -0.61186
  Beta  occ. eigenvalues --   -0.60901  -0.60796  -0.60666  -0.60649  -0.60543
  Beta  occ. eigenvalues --   -0.60398  -0.60154  -0.60052  -0.59937  -0.59714
  Beta  occ. eigenvalues --   -0.59586  -0.59541  -0.59499  -0.59475  -0.59317
  Beta  occ. eigenvalues --   -0.59293  -0.58614  -0.58405  -0.57805  -0.57425
  Beta  occ. eigenvalues --   -0.57201  -0.57122  -0.56997  -0.56752  -0.56598
  Beta  occ. eigenvalues --   -0.56295  -0.55892  -0.55550  -0.55258  -0.55017
  Beta  occ. eigenvalues --   -0.55001  -0.54823  -0.54559  -0.54415  -0.54280
  Beta  occ. eigenvalues --   -0.54227  -0.54088  -0.54054  -0.53952  -0.53878
  Beta  occ. eigenvalues --   -0.53666  -0.53573  -0.53549  -0.53476  -0.53458
  Beta  occ. eigenvalues --   -0.53340  -0.53270  -0.53119  -0.52985  -0.52941
  Beta  occ. eigenvalues --   -0.52828  -0.52629  -0.51943  -0.51579  -0.51436
  Beta  occ. eigenvalues --   -0.51286  -0.51207  -0.51051  -0.50648  -0.50591
  Beta  occ. eigenvalues --   -0.50413  -0.50287  -0.50162  -0.49986  -0.49926
  Beta  occ. eigenvalues --   -0.49884  -0.49611  -0.49474  -0.49338  -0.49157
  Beta  occ. eigenvalues --   -0.49047  -0.48895  -0.48826  -0.48818  -0.48158
  Beta  occ. eigenvalues --   -0.47111  -0.47092  -0.47077  -0.46900  -0.46712
  Beta  occ. eigenvalues --   -0.46490  -0.45618  -0.43620  -0.43253  -0.42711
  Beta  occ. eigenvalues --   -0.42130  -0.41546  -0.41047  -0.40902  -0.39209
  Beta  occ. eigenvalues --   -0.39160  -0.39054  -0.38870  -0.38695  -0.38521
  Beta  occ. eigenvalues --   -0.38432  -0.38303  -0.38248  -0.38090  -0.38071
  Beta  occ. eigenvalues --   -0.37998  -0.37849  -0.37394  -0.36948  -0.36641
  Beta  occ. eigenvalues --   -0.36565  -0.36537  -0.36442  -0.36284  -0.35958
  Beta  occ. eigenvalues --   -0.35597  -0.35179  -0.34546  -0.33749  -0.33010
  Beta  occ. eigenvalues --   -0.32452  -0.32026
  Beta virt. eigenvalues --   -0.00835  -0.00342   0.00426   0.01347   0.02412
  Beta virt. eigenvalues --    0.03391   0.03984   0.04876   0.04930   0.04953
  Beta virt. eigenvalues --    0.05069   0.05146   0.05454   0.05935   0.06182

 Mulliken charges and spin densities:
               1          2
     1  C   -0.043878  -0.000000
     2  C    0.046066  -0.000000
     3  C    0.111335   0.000000
     4  F   -0.124562   0.000000
     5  C    0.007003  -0.000000
     6  N   -0.169066   0.000000
     7  C    0.075560   0.000000
     8  C   -0.054769   0.000000
     9  C    0.047573  -0.000000
    10  C   -0.001707  -0.000000
    11  C    0.006573   0.000000
    12  C   -0.011487   0.000000
    13  C    0.132613  -0.000000
    14  F   -0.110326   0.000000
    15  C   -0.063019   0.000000
    16  C    0.059417  -0.000000
    17  C    0.119900  -0.000000
    18  F   -0.123772   0.000000
    19  C    0.010638   0.000000
    20  N   -0.165595   0.000000
    21  C    0.083591  -0.000000
    22  C   -0.055560  -0.000000
    23  C    0.044874   0.000000
    24  C   -0.002196  -0.000000
    25  C    0.008868  -0.000000
    26  C   -0.011335   0.000000
    27  C    0.131760   0.000000
    28  F   -0.109884  -0.000000
    29  C   -0.062579   0.000000
    30  C    0.057359  -0.000000
    31  C    0.118558   0.000000
    32  F   -0.123171  -0.000000
    33  C    0.011695  -0.000000
    34  N   -0.165823  -0.000000
    35  C    0.083996  -0.000000
    36  C   -0.056578  -0.000000
    37  C    0.045533  -0.000000
    38  C   -0.000924   0.000000
    39  C    0.007069  -0.000000
    40  C   -0.012062  -0.000000
    41  C    0.132095   0.000000
    42  F   -0.110669  -0.000000
    43  C   -0.061567   0.000000
    44  C    0.058568  -0.000000
    45  C    0.118811  -0.000000
    46  F   -0.122758   0.000000
    47  C    0.011409   0.000000
    48  N   -0.166056  -0.000000
    49  C    0.083837   0.000000
    50  C   -0.056777  -0.000000
    51  C    0.045522   0.000000
    52  C   -0.000417   0.000000
    53  C    0.007281  -0.000000
    54  C   -0.012049   0.000000
    55  C    0.132102  -0.000000
    56  F   -0.111014   0.000000
    57  C   -0.064424   0.000000
    58  C    0.059358  -0.000000
    59  C    0.129558   0.000000
    60  F   -0.115668  -0.000000
    61  C    0.008775   0.000000
    62  N   -0.178255  -0.000000
    63  C    0.085088   0.000000
    64  C   -0.051560  -0.000000
    65  C    0.049260  -0.000000
    66  C    0.001302   0.000000
    67  C    0.008509  -0.000000
    68  C   -0.007357   0.000000
    69  C    0.120869  -0.000000
    70  F   -0.120263  -0.000000
    71  C   -0.065621  -0.000000
    72  C    0.058905   0.000000
    73  C    0.129288  -0.000000
    74  F   -0.115914  -0.000000
    75  C    0.009103   0.000000
    76  N   -0.178020  -0.000000
    77  C    0.084363   0.000000
    78  C   -0.051746   0.000000
    79  C    0.048933  -0.000000
    80  C    0.001229   0.000000
    81  C    0.008177   0.000000
    82  C   -0.006477  -0.000000
    83  C    0.120580  -0.000000
    84  F   -0.120676   0.000000
    85  C   -0.065051  -0.000000
    86  C    0.057725   0.000000
    87  C    0.120610  -0.000000
    88  F   -0.123207  -0.000000
    89  C    0.012989  -0.000000
    90  N   -0.164705   0.000000
    91  C    0.081758  -0.000000
    92  C   -0.062563   0.000000
    93  C    0.031634  -0.000000
    94  C    0.005152   0.000000
    95  C    0.016366  -0.000000
    96  C   -0.010753   0.000000
    97  C    0.120709  -0.000000
    98  F   -0.115363   0.000000
    99  H    0.020588  -0.000000
   100  H    0.030757  -0.000000
   101  H    0.025733  -0.000000
   102  H    0.007788   0.000000
   103  H    0.000928  -0.000000
   104  H    0.016655  -0.000000
   105  H    0.022761  -0.000000
   106  H    0.023828   0.000000
   107  H    0.007915   0.000000
   108  H    0.000086   0.000000
   109  H    0.017755  -0.000000
   110  H    0.023143   0.000000
   111  H    0.024360   0.000000
   112  H    0.008424   0.000000
   113  H    0.004596   0.000000
   114  H    0.013531   0.000000
   115  H    0.023812   0.000000
   116  H    0.022895   0.000000
   117  H    0.008687   0.000000
   118  H    0.003879   0.000000
   119  H    0.014166   0.000000
   120  H    0.024324   0.000000
   121  H    0.021908   0.000000
   122  H    0.009467   0.000000
   123  H    0.004785   0.000000
   124  H    0.014730   0.000000
   125  H    0.024096   0.000000
   126  H    0.022356   0.000000
   127  H    0.008752   0.000000
   128  H    0.004075   0.000000
   129  H    0.015038  -0.000000
   130  H    0.021996  -0.000000
   131  H    0.022304  -0.000000
   132  H    0.004007  -0.000000
   133  H    0.006207  -0.000000
   134  H    0.011817  -0.000000
   135  H    0.019236   0.000000
 Sum of Mulliken charges =  -0.00000   0.00000

 Dipole moment (field-independent basis, Debye):
    X=              9.2952    Y=              3.1418    Z=              0.5179  Tot=              9.8255
 Quadrupole moment (field-independent basis, Debye-Ang):
   XX=           -338.5354   YY=           -546.1821   ZZ=           -538.0742
   XY=              2.4224   XZ=            -24.3936   YZ=             -4.5052

 Normal termination of Gaussian 16 at Sat Jul 25 04:43:11 2020.
