 Gaussian 16, Revision A.03,
 Gaussian 16:  EM64L-G16RevA.03 25-Dec-2016

 ---------------------------------------------------------------
 #P uLC-wPBE/cc-pVDZ iop(3/107=0365300000, 3/108=0365300000) opt
 ---------------------------------------------------------------

 ----------
 H51 C77 N7
 ----------
 Symbolic Z-matrix:
 Charge =  0 Multiplicity = 1

 SCF Done:  E(ULC-wPBE) =  -3345.63361553     A.U. after   15 cycles
 SCF Done:  E(ULC-wPBE) =  -3345.73918332     A.U. after   13 cycles
 SCF Done:  E(ULC-wPBE) =  -3345.85051081     A.U. after   14 cycles
 SCF Done:  E(ULC-wPBE) =  -3345.88582815     A.U. after   14 cycles
 SCF Done:  E(ULC-wPBE) =  -3345.89555653     A.U. after   16 cycles
 SCF Done:  E(ULC-wPBE) =  -3345.89734919     A.U. after   16 cycles
 SCF Done:  E(ULC-wPBE) =  -3345.89850286     A.U. after   16 cycles
 SCF Done:  E(ULC-wPBE) =  -3345.89935169     A.U. after   14 cycles
 SCF Done:  E(ULC-wPBE) =  -3345.89995705     A.U. after   17 cycles
 SCF Done:  E(ULC-wPBE) =  -3345.90053587     A.U. after   15 cycles
 SCF Done:  E(ULC-wPBE) =  -3345.90119691     A.U. after   14 cycles
 SCF Done:  E(ULC-wPBE) =  -3345.90120301     A.U. after   14 cycles
 SCF Done:  E(ULC-wPBE) =  -3345.90120591     A.U. after   11 cycles
 SCF Done:  E(ULC-wPBE) =  -3345.90121201     A.U. after   10 cycles
 SCF Done:  E(ULC-wPBE) =  -3345.90123637     A.U. after   12 cycles
 SCF Done:  E(ULC-wPBE) =  -3345.90123732     A.U. after   11 cycles
 SCF Done:  E(ULC-wPBE) =  -3345.90123747     A.U. after   10 cycles
 SCF Done:  E(ULC-wPBE) =  -3345.90123745     A.U. after    6 cycles
 SCF Done:  E(ULC-wPBE) =  -3345.90123741     A.U. after    8 cycles
 SCF Done:  E(ULC-wPBE) =  -3345.90123757     A.U. after    6 cycles
 Optimization completed on the basis of negligible forces.
    -- Stationary point found.

                         Standard orientation:
 ---------------------------------------------------------------------
 Center     Atomic      Atomic             Coordinates (Angstroms)
 Number     Number       Type             X           Y           Z
 ---------------------------------------------------------------------
      1          6           0       28.873516   -2.189747    0.290099
      2          6           0       28.022885   -3.144452    0.831900
      3          6           0       26.653602   -2.927115    0.787902
      4          6           0       26.168194   -1.758521    0.193567
      5          7           0       26.989292   -0.833015   -0.315247
      6          6           0       28.299845   -1.051418   -0.263708
      7          6           0       24.709598   -1.461216    0.107741
      8          6           0       24.288717   -0.150115   -0.126608
      9          6           0       22.939833    0.160880   -0.203761
     10          6           0       21.963698   -0.829604   -0.058814
     11          6           0       22.385533   -2.142959    0.161525
     12          6           0       23.736406   -2.453209    0.243841
     13          6           0       20.521739   -0.496123   -0.143698
     14          6           0       20.017668    0.391232   -1.094416
     15          6           0       18.660255    0.666367   -1.127687
     16          6           0       17.814109    0.051520   -0.201160
     17          7           0       18.287384   -0.806363    0.709497
     18          6           0       19.589552   -1.061562    0.730190
     19          6           0       16.343762    0.293659   -0.178809
     20          6           0       15.755531    1.381944   -0.827043
     21          6           0       14.381447    1.575842   -0.789634
     22          6           0       13.549349    0.688686   -0.102722
     23          6           0       14.140451   -0.395346    0.553289
     24          6           0       15.513302   -0.586717    0.518759
     25          6           0       12.081844    0.895583   -0.067685
     26          6           0       11.510969    2.155392    0.111638
     27          6           0       10.132200    2.289591    0.134812
     28          6           0        9.331380    1.156214   -0.027724
     29          7           0        9.869900   -0.057112   -0.192266
     30          6           0       11.191835   -0.172128   -0.211175
     31          6           0        7.842594    1.220799   -0.010399
     32          6           0        7.144432    2.419782   -0.171471
     33          6           0        5.756760    2.445249   -0.146608
     34          6           0        5.020251    1.272892    0.039973
     35          6           0        5.720203    0.072299    0.193027
     36          6           0        7.106298    0.046704    0.164221
     37          6           0        3.538433    1.301563    0.068270
     38          6           0        2.824735    2.300649    0.729646
     39          6           0        1.439461    2.275163    0.725516
     40          6           0        0.776326    1.239638    0.062167
     41          7           0        1.451979    0.288026   -0.591457
     42          6           0        2.778441    0.326478   -0.583350
     43          6           0       -0.709932    1.139364    0.023220
     44          6           0       -1.318221    0.318414   -0.929637
     45          6           0       -2.698500    0.208589   -0.997422
     46          6           0       -3.520542    0.909531   -0.109667
     47          6           0       -2.911529    1.720810    0.850651
     48          6           0       -1.529185    1.833290    0.916120
     49          6           0       -4.996464    0.791384   -0.181486
     50          6           0       -5.684001    0.775498   -1.394863
     51          6           0       -7.065177    0.666715   -1.401980
     52          6           0       -7.751138    0.582557   -0.187693
     53          7           0       -7.099102    0.576346    0.980256
     54          6           0       -5.775753    0.675785    0.972717
     55          6           0       -9.235431    0.475113   -0.116218
     56          6           0      -10.061217    0.819228   -1.188494
     57          6           0      -11.441516    0.704976   -1.090922
     58          6           0      -12.041705    0.242053    0.082548
     59          6           0      -11.213760   -0.094131    1.158032
     60          6           0       -9.835855    0.024393    1.061948
     61          6           0      -13.515157    0.116828    0.185593
     62          6           0      -14.216349    0.488050    1.332678
     63          6           0      -15.594500    0.351888    1.371223
     64          6           0      -16.264460   -0.150218    0.252486
     65          7           0      -15.598536   -0.527404   -0.844616
     66          6           0      -14.278148   -0.396123   -0.866671
     67          6           0      -17.744967   -0.315033    0.216171
     68          6           0      -18.321265   -1.135920   -0.756343
     69          6           0      -19.694656   -1.316567   -0.812330
     70          6           0      -20.542628   -0.677110    0.097165
     71          6           0      -19.966706    0.152995    1.061835
     72          6           0      -18.591006    0.331433    1.119763
     73          6           0      -22.010944   -0.872229    0.035763
     74          6           0      -22.585564   -2.122213   -0.194653
     75          6           0      -23.964312   -2.247428   -0.242586
     76          6           0      -24.762140   -1.113881   -0.064342
     77          7           0      -24.220121    0.087273    0.165280
     78          6           0      -22.897781    0.193170    0.209854
     79          6           0      -26.251448   -1.174159   -0.098522
     80          6           0      -26.936854   -2.244877   -0.677946
     81          6           0      -28.326644   -2.274579   -0.689800
     82          6           0      -29.053323   -1.233613   -0.122327
     83          6           0      -28.379521   -0.158374    0.449344
     84          6           0      -26.991420   -0.127224    0.457175
     85          1           0       29.957709   -2.316543    0.301436
     86          1           0       28.422088   -4.051153    1.293462
     87          1           0       25.969774   -3.653495    1.228980
     88          1           0       28.932137   -0.266094   -0.693069
     89          1           0       25.049701    0.622809   -0.244639
     90          1           0       22.636596    1.199482   -0.360024
     91          1           0       21.645464   -2.942978    0.242461
     92          1           0       24.026191   -3.496054    0.389476
     93          1           0       20.687484    0.848498   -1.827421
     94          1           0       18.262220    1.337625   -1.889552
     95          1           0       19.927078   -1.754677    1.509391
     96          1           0       16.371423    2.105077   -1.365771
     97          1           0       13.945352    2.426427   -1.319803
     98          1           0       13.515720   -1.090165    1.120381
     99          1           0       15.975464   -1.423003    1.045427
    100          1           0       12.149002    3.030707    0.259434
    101          1           0        9.686047    3.270298    0.304079
    102          1           0       11.580251   -1.184858   -0.368950
    103          1           0        7.681690    3.354360   -0.345922
    104          1           0        5.235094    3.392945   -0.303009
    105          1           0        5.169456   -0.857145    0.358753
    106          1           0        7.651359   -0.891224    0.280507
    107          1           0        3.356330    3.094693    1.260727
    108          1           0        0.880857    3.063915    1.230863
    109          1           0        3.282303   -0.465550   -1.149216
    110          1           0       -0.677078   -0.242304   -1.611501
    111          1           0       -3.147972   -0.453564   -1.742127
    112          1           0       -3.529669    2.288326    1.550761
    113          1           0       -1.092227    2.468284    1.689671
    114          1           0       -5.136211    0.860483   -2.337075
    115          1           0       -7.602660    0.638961   -2.350658
    116          1           0       -5.289607    0.645337    1.954671
    117          1           0       -9.632484    1.210884   -2.113408
    118          1           0      -12.066078    1.008237   -1.934883
    119          1           0      -11.656097   -0.476078    2.081879
    120          1           0       -9.191104   -0.235001    1.903033
    121          1           0      -13.681963    0.896866    2.194267
    122          1           0      -16.141766    0.628871    2.273046
    123          1           0      -13.780054   -0.738014   -1.781323
    124          1           0      -17.662034   -1.622305   -1.476941
    125          1           0      -20.121112   -1.951669   -1.593272
    126          1           0      -20.604096    0.657254    1.792394
    127          1           0      -18.181905    0.998432    1.881538
    128          1           0      -21.950680   -3.004557   -0.311112
    129          1           0      -24.415294   -3.229184   -0.392068
    130          1           0      -22.506288    1.202982    0.379190
    131          1           0      -26.386564   -3.063202   -1.147634
    132          1           0      -28.845795   -3.117338   -1.152829
    133          1           0      -30.145852   -1.257880   -0.130557
    134          1           0      -28.942098    0.666634    0.893538
    135          1           0      -26.448258    0.713697    0.891306
 ---------------------------------------------------------------------

 Alpha  occ. eigenvalues --   -0.51673  -0.51631  -0.51064  -0.51058  -0.50615
 Alpha  occ. eigenvalues --   -0.50596  -0.50342  -0.50286  -0.49971  -0.49884
 Alpha  occ. eigenvalues --   -0.49541  -0.49425  -0.49175  -0.48849  -0.48639
 Alpha  occ. eigenvalues --   -0.48117  -0.47853  -0.46426  -0.46124  -0.46019
 Alpha  occ. eigenvalues --   -0.45876  -0.45734  -0.45415  -0.45313  -0.45113
 Alpha  occ. eigenvalues --   -0.45015  -0.44950  -0.44913  -0.44869  -0.44616
 Alpha  occ. eigenvalues --   -0.44192  -0.42911  -0.42442  -0.41841  -0.41108
 Alpha  occ. eigenvalues --   -0.40401  -0.40023  -0.39897  -0.39360  -0.39246
 Alpha  occ. eigenvalues --   -0.39123  -0.38916  -0.38708  -0.38225  -0.37530
 Alpha  occ. eigenvalues --   -0.36980  -0.36865  -0.36813  -0.36736  -0.36598
 Alpha  occ. eigenvalues --   -0.36582  -0.36236  -0.36197  -0.36152  -0.36120
 Alpha  occ. eigenvalues --   -0.36060  -0.35993  -0.35833  -0.35221  -0.35099
 Alpha  occ. eigenvalues --   -0.34215  -0.33188  -0.32139  -0.31171  -0.30429
 Alpha  occ. eigenvalues --   -0.29908
 Alpha virt. eigenvalues --   -0.00474   0.00105   0.00951   0.01993   0.03127
 Alpha virt. eigenvalues --    0.04195   0.04748   0.04874   0.04947   0.04990
 Alpha virt. eigenvalues --    0.05075   0.05163   0.05451   0.05654   0.07054

  Beta  occ. eigenvalues --  -14.20114 -14.20103 -14.20036 -14.19998 -14.19952
  Beta  occ. eigenvalues --  -14.19844 -14.19489 -10.15361 -10.15222 -10.15159
  Beta  occ. eigenvalues --  -10.15115 -10.15042 -10.14950 -10.14576 -10.14376
  Beta  occ. eigenvalues --  -10.14267 -10.14191 -10.14144 -10.14106 -10.14013
  Beta  occ. eigenvalues --  -10.13710 -10.13105 -10.12891 -10.12859 -10.12816
  Beta  occ. eigenvalues --  -10.12734 -10.12637 -10.12575 -10.12524 -10.12472
  Beta  occ. eigenvalues --  -10.12466 -10.12421 -10.12398 -10.12347 -10.12346
  Beta  occ. eigenvalues --  -10.12317 -10.12298 -10.12222 -10.12040 -10.12022
  Beta  occ. eigenvalues --  -10.11911 -10.11885 -10.11861 -10.11840 -10.11821
  Beta  occ. eigenvalues --  -10.11799 -10.11781 -10.11770 -10.11735 -10.11695
  Beta  occ. eigenvalues --  -10.11661 -10.11590 -10.11514 -10.11489 -10.11449
  Beta  occ. eigenvalues --  -10.11398 -10.11350 -10.11335 -10.11323 -10.11282
  Beta  occ. eigenvalues --  -10.11246 -10.11246 -10.11187 -10.11181 -10.11106
  Beta  occ. eigenvalues --  -10.11099 -10.11069 -10.11007 -10.11006 -10.10953
  Beta  occ. eigenvalues --  -10.10941 -10.10939 -10.10759 -10.10730 -10.10619
  Beta  occ. eigenvalues --  -10.10560 -10.10539 -10.10487 -10.10467 -10.10323
  Beta  occ. eigenvalues --  -10.10301 -10.10267 -10.10067 -10.09691  -1.08536
  Beta  occ. eigenvalues --   -1.08469  -1.08460  -1.08420  -1.08364  -1.08262
  Beta  occ. eigenvalues --   -1.07907  -1.01155  -1.01003  -1.00827  -1.00636
  Beta  occ. eigenvalues --   -1.00449  -1.00271  -0.99104  -0.96244  -0.95961
  Beta  occ. eigenvalues --   -0.95619  -0.95287  -0.95027  -0.94817  -0.94393
  Beta  occ. eigenvalues --   -0.93063  -0.92867  -0.92646  -0.92368  -0.91969
  Beta  occ. eigenvalues --   -0.91413  -0.90830  -0.89472  -0.88699  -0.88641
  Beta  occ. eigenvalues --   -0.88524  -0.88506  -0.88444  -0.88345  -0.88170
  Beta  occ. eigenvalues --   -0.87572  -0.87432  -0.86547  -0.85520  -0.84581
  Beta  occ. eigenvalues --   -0.83854  -0.79908  -0.79157  -0.78277  -0.78009
  Beta  occ. eigenvalues --   -0.77846  -0.77677  -0.77276  -0.77023  -0.76753
  Beta  occ. eigenvalues --   -0.76524  -0.76271  -0.75804  -0.75045  -0.74464
  Beta  occ. eigenvalues --   -0.73823  -0.73433  -0.73024  -0.72516  -0.72320
  Beta  occ. eigenvalues --   -0.72031  -0.71834  -0.71666  -0.71319  -0.71121
  Beta  occ. eigenvalues --   -0.70889  -0.70594  -0.70346  -0.70110  -0.67251
  Beta  occ. eigenvalues --   -0.67064  -0.66815  -0.66490  -0.66077  -0.65591
  Beta  occ. eigenvalues --   -0.65043  -0.63860  -0.63162  -0.62831  -0.62464
  Beta  occ. eigenvalues --   -0.62305  -0.62020  -0.61664  -0.61367  -0.61189
  Beta  occ. eigenvalues --   -0.60830  -0.60769  -0.60629  -0.60474  -0.60099
  Beta  occ. eigenvalues --   -0.59606  -0.57580  -0.57449  -0.57445  -0.57235
  Beta  occ. eigenvalues --   -0.57146  -0.57014  -0.56927  -0.56735  -0.56551
  Beta  occ. eigenvalues --   -0.56466  -0.56300  -0.56192  -0.55995  -0.55844
  Beta  occ. eigenvalues --   -0.55742  -0.55703  -0.55645  -0.55511  -0.55174
  Beta  occ. eigenvalues --   -0.55043  -0.54616  -0.54533  -0.54469  -0.54334
  Beta  occ. eigenvalues --   -0.54268  -0.54236  -0.54096  -0.53727  -0.53689
  Beta  occ. eigenvalues --   -0.53636  -0.53575  -0.53487  -0.53316  -0.53183
  Beta  occ. eigenvalues --   -0.52974  -0.52711  -0.52472  -0.51983  -0.51777
  Beta  occ. eigenvalues --   -0.51673  -0.51631  -0.51064  -0.51058  -0.50615
  Beta  occ. eigenvalues --   -0.50596  -0.50342  -0.50286  -0.49971  -0.49884
  Beta  occ. eigenvalues --   -0.49541  -0.49425  -0.49175  -0.48849  -0.48639
  Beta  occ. eigenvalues --   -0.48117  -0.47853  -0.46426  -0.46124  -0.46019
  Beta  occ. eigenvalues --   -0.45876  -0.45734  -0.45415  -0.45313  -0.45113
  Beta  occ. eigenvalues --   -0.45015  -0.44950  -0.44913  -0.44869  -0.44616
  Beta  occ. eigenvalues --   -0.44192  -0.42911  -0.42442  -0.41841  -0.41108
  Beta  occ. eigenvalues --   -0.40401  -0.40023  -0.39897  -0.39360  -0.39246
  Beta  occ. eigenvalues --   -0.39123  -0.38916  -0.38708  -0.38225  -0.37530
  Beta  occ. eigenvalues --   -0.36980  -0.36865  -0.36813  -0.36736  -0.36598
  Beta  occ. eigenvalues --   -0.36582  -0.36236  -0.36197  -0.36152  -0.36120
  Beta  occ. eigenvalues --   -0.36060  -0.35993  -0.35833  -0.35221  -0.35099
  Beta  occ. eigenvalues --   -0.34215  -0.33188  -0.32139  -0.31171  -0.30429
  Beta  occ. eigenvalues --   -0.29908
  Beta virt. eigenvalues --   -0.00474   0.00105   0.00951   0.01993   0.03127
  Beta virt. eigenvalues --    0.04195   0.04748   0.04874   0.04947   0.04990
  Beta virt. eigenvalues --    0.05075   0.05163   0.05451   0.05654   0.07054

 Mulliken charges and spin densities:
               1          2
     1  C   -0.056780  -0.000000
     2  C    0.064057  -0.000000
     3  C   -0.030428  -0.000000
     4  C    0.089266   0.000000
     5  N   -0.198830  -0.000000
     6  C    0.088543   0.000000
     7  C   -0.016124  -0.000000
     8  C    0.044914   0.000000
     9  C    0.006530   0.000000
    10  C    0.003221  -0.000000
    11  C    0.002254   0.000000
    12  C   -0.019351  -0.000000
    13  C   -0.066545   0.000000
    14  C    0.064771  -0.000000
    15  C   -0.015283   0.000000
    16  C    0.095315  -0.000000
    17  N   -0.197107   0.000000
    18  C    0.093668  -0.000000
    19  C   -0.019924  -0.000000
    20  C   -0.021152   0.000000
    21  C    0.003047   0.000000
    22  C    0.001204  -0.000000
    23  C    0.007454  -0.000000
    24  C    0.046042   0.000000
    25  C   -0.065770  -0.000000
    26  C    0.064549   0.000000
    27  C   -0.015516   0.000000
    28  C    0.095106   0.000000
    29  N   -0.196885  -0.000000
    30  C    0.094426   0.000000
    31  C   -0.019073   0.000000
    32  C   -0.023045  -0.000000
    33  C    0.002081   0.000000
    34  C    0.003424  -0.000000
    35  C    0.007750   0.000000
    36  C    0.045629  -0.000000
    37  C   -0.068661  -0.000000
    38  C    0.065433   0.000000
    39  C   -0.014868   0.000000
    40  C    0.094009   0.000000
    41  N   -0.196650  -0.000000
    42  C    0.094390   0.000000
    43  C   -0.019732  -0.000000
    44  C    0.045801  -0.000000
    45  C    0.006433   0.000000
    46  C    0.001623   0.000000
    47  C    0.002869  -0.000000
    48  C   -0.020686   0.000000
    49  C   -0.067839  -0.000000
    50  C    0.065899   0.000000
    51  C   -0.014590  -0.000000
    52  C    0.092092  -0.000000
    53  N   -0.196642  -0.000000
    54  C    0.093380   0.000000
    55  C   -0.017741  -0.000000
    56  C   -0.021598   0.000000
    57  C    0.002530   0.000000
    58  C    0.003557  -0.000000
    59  C    0.006121  -0.000000
    60  C    0.044916   0.000000
    61  C   -0.068576   0.000000
    62  C    0.065611   0.000000
    63  C   -0.014782  -0.000000
    64  C    0.093963   0.000000
    65  N   -0.196750  -0.000000
    66  C    0.093482   0.000000
    67  C   -0.019762  -0.000000
    68  C    0.045556   0.000000
    69  C    0.007043  -0.000000
    70  C    0.001830  -0.000000
    71  C    0.002686  -0.000000
    72  C   -0.020902   0.000000
    73  C   -0.067128   0.000000
    74  C    0.064597   0.000000
    75  C   -0.014555  -0.000000
    76  C    0.094429  -0.000000
    77  N   -0.196116   0.000000
    78  C    0.092109  -0.000000
    79  C   -0.025701   0.000000
    80  C   -0.034119  -0.000000
    81  C    0.012558   0.000000
    82  C    0.007062  -0.000000
    83  C    0.016806   0.000000
    84  C    0.030892  -0.000000
    85  H    0.009761  -0.000000
    86  H    0.012597   0.000000
    87  H    0.008927   0.000000
    88  H    0.017547   0.000000
    89  H   -0.000592   0.000000
    90  H   -0.004735   0.000000
    91  H   -0.004142   0.000000
    92  H   -0.005234   0.000000
    93  H    0.004192  -0.000000
    94  H    0.006825   0.000000
    95  H    0.013233   0.000000
    96  H   -0.006876  -0.000000
    97  H   -0.007404  -0.000000
    98  H   -0.001618  -0.000000
    99  H   -0.000107  -0.000000
   100  H    0.002427  -0.000000
   101  H    0.006272  -0.000000
   102  H    0.014708  -0.000000
   103  H   -0.007036  -0.000000
   104  H   -0.007543   0.000000
   105  H   -0.001330   0.000000
   106  H    0.000336   0.000000
   107  H    0.002386  -0.000000
   108  H    0.006715   0.000000
   109  H    0.015266   0.000000
   110  H   -0.000028   0.000000
   111  H   -0.004226   0.000000
   112  H   -0.004323  -0.000000
   113  H   -0.006329   0.000000
   114  H    0.003938  -0.000000
   115  H    0.007549   0.000000
   116  H    0.013557  -0.000000
   117  H   -0.005986   0.000000
   118  H   -0.004001   0.000000
   119  H   -0.004656   0.000000
   120  H   -0.000526   0.000000
   121  H    0.004118   0.000000
   122  H    0.007080   0.000000
   123  H    0.012925   0.000000
   124  H   -0.000952  -0.000000
   125  H   -0.004689  -0.000000
   126  H   -0.004605   0.000000
   127  H   -0.006635  -0.000000
   128  H    0.002533  -0.000000
   129  H    0.006839  -0.000000
   130  H    0.012590  -0.000000
   131  H   -0.008669   0.000000
   132  H   -0.000432   0.000000
   133  H   -0.000354   0.000000
   134  H    0.002093   0.000000
   135  H   -0.003104   0.000000
 Sum of Mulliken charges =  -0.00000   0.00000

 Dipole moment (field-independent basis, Debye):
    X=              9.3746    Y=              1.0984    Z=              0.3519  Tot=              9.4453
 Quadrupole moment (field-independent basis, Debye-Ang):
   XX=           -374.0091   YY=           -442.9577   ZZ=           -471.7878
   XY=              6.5904   XZ=             -4.9326   YZ=              1.5753

 Normal termination of Gaussian 16 at Fri Jul 24 23:36:59 2020.
