 Gaussian 16, Revision A.03,
 Gaussian 16:  EM64L-G16RevA.03 25-Dec-2016

 ---------------------------------------------------------------
 #P uLC-wPBE/cc-pVDZ iop(3/107=0462500000, 3/108=0462500000) opt
 ---------------------------------------------------------------

 ----------------
 H22 C45 S5 N5 F5
 ----------------
 Symbolic Z-matrix:
 Charge =  0 Multiplicity = 1

 SCF Done:  E(ULC-wPBE) =  -4489.62330979     A.U. after   17 cycles
 SCF Done:  E(ULC-wPBE) =  -4489.70739424     A.U. after   14 cycles
 SCF Done:  E(ULC-wPBE) =  -4489.77633304     A.U. after   15 cycles
 SCF Done:  E(ULC-wPBE) =  -4489.79378999     A.U. after   15 cycles
 SCF Done:  E(ULC-wPBE) =  -4489.79916859     A.U. after   15 cycles
 SCF Done:  E(ULC-wPBE) =  -4489.80087582     A.U. after   14 cycles
 SCF Done:  E(ULC-wPBE) =  -4489.80128948     A.U. after   13 cycles
 SCF Done:  E(ULC-wPBE) =  -4489.80165244     A.U. after   12 cycles
 SCF Done:  E(ULC-wPBE) =  -4489.80176616     A.U. after   12 cycles
 SCF Done:  E(ULC-wPBE) =  -4489.80178577     A.U. after   11 cycles
 SCF Done:  E(ULC-wPBE) =  -4489.80179546     A.U. after   11 cycles
 SCF Done:  E(ULC-wPBE) =  -4489.80179896     A.U. after   11 cycles
 SCF Done:  E(ULC-wPBE) =  -4489.80180033     A.U. after   10 cycles
 SCF Done:  E(ULC-wPBE) =  -4489.80180072     A.U. after    8 cycles
 SCF Done:  E(ULC-wPBE) =  -4489.80180073     A.U. after    7 cycles
 SCF Done:  E(ULC-wPBE) =  -4489.80180074     A.U. after    7 cycles
 SCF Done:  E(ULC-wPBE) =  -4489.80180073     A.U. after    7 cycles
 SCF Done:  E(ULC-wPBE) =  -4489.80180070     A.U. after    7 cycles
 Optimization completed on the basis of negligible forces.
    -- Stationary point found.

                         Standard orientation:
 ---------------------------------------------------------------------
 Center     Atomic      Atomic             Coordinates (Angstroms)
 Number     Number       Type             X           Y           Z
 ---------------------------------------------------------------------
      1          6           0      -17.898471   -3.418185   -1.171184
      2          6           0      -17.182667   -4.455618   -0.597300
      3          6           0      -15.860261   -4.254344   -0.248955
      4          6           0      -15.295715   -3.003984   -0.491232
      5          7           0      -15.980203   -2.002884   -1.042632
      6          6           0      -17.245502   -2.212888   -1.370653
      7          6           0      -13.902880   -2.689978   -0.159975
      8          6           0      -12.922688   -3.446158    0.405532
      9          9           0      -13.093033   -4.713759    0.792286
     10          6           0      -11.681473   -2.793894    0.575879
     11          6           0      -11.733554   -1.509600    0.122146
     12         16           0      -13.284913   -1.121672   -0.508786
     13          6           0      -10.651097   -0.519062    0.127096
     14          6           0      -10.885338    0.844669    0.272718
     15          6           0       -9.825458    1.727891    0.278167
     16          6           0       -8.535274    1.220771    0.143223
     17          7           0       -8.298493   -0.082673   -0.002425
     18          6           0       -9.322914   -0.914792   -0.015527
     19          6           0       -7.344318    2.071269    0.147113
     20          6           0       -7.208371    3.419935    0.275706
     21          9           0       -8.236832    4.256399    0.440399
     22          6           0       -5.880353    3.896791    0.233306
     23          6           0       -4.993802    2.874203    0.067693
     24         16           0       -5.790417    1.355283   -0.042908
     25          6           0       -3.532521    2.973788   -0.021354
     26          6           0       -2.910614    4.091447   -0.570079
     27          6           0       -1.534282    4.155633   -0.624498
     28          6           0       -0.797459    3.080724   -0.130546
     29          7           0       -1.381007    2.004358    0.394108
     30          6           0       -2.699718    1.960294    0.446679
     31          6           0        0.665226    3.046656   -0.151603
     32          6           0        1.575191    3.955270   -0.599280
     33          9           0        1.243882    5.134430   -1.132467
     34          6           0        2.927052    3.574932   -0.453799
     35          6           0        3.033021    2.342268    0.119204
     36         16           0        1.490558    1.666406    0.462775
     37          6           0        4.264612    1.608800    0.432139
     38          6           0        4.365701    0.744985    1.518333
     39          6           0        5.553397    0.088781    1.766602
     40          6           0        6.632246    0.318669    0.915703
     41          7           0        6.545888    1.139544   -0.130828
     42          6           0        5.400347    1.753212   -0.361476
     43          6           0        7.935844   -0.320006    1.098588
     44          6           0        8.379339   -1.192930    2.044808
     45          9           0        7.624824   -1.639278    3.052494
     46          6           0        9.723082   -1.602533    1.903257
     47          6           0       10.304000   -1.019962    0.816064
     48         16           0        9.205955    0.007094   -0.016865
     49          6           0       11.680830   -1.196409    0.340598
     50          6           0       12.386877   -0.183626   -0.301028
     51          6           0       13.682659   -0.407007   -0.718108
     52          6           0       14.256010   -1.653327   -0.475735
     53          7           0       13.587579   -2.632688    0.132688
     54          6           0       12.345426   -2.407648    0.518087
     55          6           0       15.627007   -1.984796   -0.868833
     56          6           0       16.579184   -1.239038   -1.495408
     57          9           0       16.393695    0.026089   -1.884704
     58          6           0       17.810277   -1.900389   -1.715952
     59          6           0       17.760300   -3.169214   -1.237135
     60         16           0       16.254354   -3.553173   -0.534816
     61          1           0      -18.940504   -3.536466   -1.459519
     62          1           0      -17.651967   -5.422285   -0.420269
     63          1           0      -15.269985   -5.045668    0.202393
     64          1           0      -17.768820   -1.366960   -1.819793
     65          1           0      -10.819181   -3.263368    1.039252
     66          1           0      -11.902189    1.216064    0.395841
     67          1           0       -9.989247    2.794487    0.394469
     68          1           0       -9.081440   -1.968881   -0.162652
     69          1           0       -5.618379    4.943859    0.350551
     70          1           0       -3.509074    4.907565   -0.971912
     71          1           0       -1.032058    5.017496   -1.052281
     72          1           0       -3.130018    1.065233    0.900866
     73          1           0        3.760052    4.209997   -0.738989
     74          1           0        3.514080    0.595264    2.181241
     75          1           0        5.651531   -0.585804    2.611127
     76          1           0        5.370381    2.394891   -1.243799
     77          1           0       10.219859   -2.271573    2.599046
     78          1           0       11.924596    0.789635   -0.463031
     79          1           0       14.249975    0.372388   -1.216624
     80          1           0       11.830970   -3.247269    0.988861
     81          1           0       18.663619   -1.438866   -2.202676
     82          1           0       18.552635   -3.910859   -1.264820
 ---------------------------------------------------------------------

 The electronic state is 1-A.
 Alpha  occ. eigenvalues --  -88.36710 -88.36677 -88.36622 -88.36430 -88.36211
 Alpha  occ. eigenvalues --  -24.55233 -24.55175 -24.55130 -24.54890 -24.54782
 Alpha  occ. eigenvalues --  -14.26217 -14.26198 -14.26128 -14.25967 -14.25556
 Alpha  occ. eigenvalues --  -10.25522 -10.25461 -10.25432 -10.25167 -10.24995
 Alpha  occ. eigenvalues --  -10.22264 -10.22204 -10.22125 -10.21980 -10.21692
 Alpha  occ. eigenvalues --  -10.21255 -10.21234 -10.21157 -10.20960 -10.20694
 Alpha  occ. eigenvalues --  -10.20676 -10.20579 -10.20508 -10.19906 -10.19793
 Alpha  occ. eigenvalues --  -10.19756 -10.19739 -10.19700 -10.19472 -10.19303
 Alpha  occ. eigenvalues --  -10.19219 -10.19174 -10.19135 -10.19067 -10.19044
 Alpha  occ. eigenvalues --  -10.18999 -10.18940 -10.18880 -10.18441 -10.17688
 Alpha  occ. eigenvalues --  -10.17595 -10.17562 -10.17558 -10.17541 -10.17445
 Alpha  occ. eigenvalues --  -10.17382 -10.17317 -10.17117 -10.17049 -10.17004
 Alpha  occ. eigenvalues --   -7.97551  -7.97513  -7.97464  -7.97269  -7.97064
 Alpha  occ. eigenvalues --   -5.98815  -5.98777  -5.98727  -5.98532  -5.98318
 Alpha  occ. eigenvalues --   -5.98263  -5.98224  -5.98177  -5.97981  -5.97820
 Alpha  occ. eigenvalues --   -5.97784  -5.97763  -5.97733  -5.97539  -5.97354
 Alpha  occ. eigenvalues --   -1.39880  -1.39821  -1.39783  -1.39529  -1.39402
 Alpha  occ. eigenvalues --   -1.14991  -1.14881  -1.14792  -1.14647  -1.14121
 Alpha  occ. eigenvalues --   -1.09795  -1.09495  -1.09184  -1.08930  -1.08415
 Alpha  occ. eigenvalues --   -1.01683  -1.01189  -1.00686  -1.00422  -0.98968
 Alpha  occ. eigenvalues --   -0.98316  -0.98075  -0.97716  -0.97057  -0.96391
 Alpha  occ. eigenvalues --   -0.93661  -0.92813  -0.92554  -0.92331  -0.91896
 Alpha  occ. eigenvalues --   -0.91482  -0.91247  -0.90137  -0.88856  -0.87795
 Alpha  occ. eigenvalues --   -0.83564  -0.82793  -0.81966  -0.81667  -0.81058
 Alpha  occ. eigenvalues --   -0.80872  -0.80654  -0.80202  -0.79322  -0.78832
 Alpha  occ. eigenvalues --   -0.74793  -0.74520  -0.74288  -0.73719  -0.73560
 Alpha  occ. eigenvalues --   -0.73536  -0.73315  -0.73244  -0.73021  -0.72918
 Alpha  occ. eigenvalues --   -0.71393  -0.71120  -0.70711  -0.70338  -0.70069
 Alpha  occ. eigenvalues --   -0.65826  -0.65583  -0.65535  -0.65347  -0.64738
 Alpha  occ. eigenvalues --   -0.64194  -0.63881  -0.63644  -0.63593  -0.63537
 Alpha  occ. eigenvalues --   -0.63410  -0.63188  -0.63177  -0.63040  -0.62858
 Alpha  occ. eigenvalues --   -0.62705  -0.62622  -0.62356  -0.61779  -0.61278
 Alpha  occ. eigenvalues --   -0.59711  -0.59052  -0.58650  -0.58632  -0.58541
 Alpha  occ. eigenvalues --   -0.58285  -0.58200  -0.57963  -0.57890  -0.57766
 Alpha  occ. eigenvalues --   -0.57518  -0.57267  -0.57132  -0.57096  -0.57006
 Alpha  occ. eigenvalues --   -0.56247  -0.55248  -0.54834  -0.54779  -0.54569
 Alpha  occ. eigenvalues --   -0.54269  -0.53967  -0.53519  -0.53310  -0.53198
 Alpha  occ. eigenvalues --   -0.52414  -0.52240  -0.52018  -0.51875  -0.51675
 Alpha  occ. eigenvalues --   -0.51213  -0.50323  -0.50022  -0.49642  -0.49628
 Alpha  occ. eigenvalues --   -0.49282  -0.48458  -0.48352  -0.48236  -0.48038
 Alpha  occ. eigenvalues --   -0.47993  -0.45737  -0.44716  -0.43451  -0.42373
 Alpha  occ. eigenvalues --   -0.41674  -0.41430  -0.41274  -0.41082  -0.40643
 Alpha  occ. eigenvalues --   -0.40158  -0.40104  -0.39808  -0.39634  -0.39450
 Alpha  occ. eigenvalues --   -0.39393  -0.37311  -0.37162  -0.37155  -0.36938
 Alpha  occ. eigenvalues --   -0.36703  -0.35871  -0.34388  -0.32638  -0.31089
 Alpha  occ. eigenvalues --   -0.30083
 Alpha virt. eigenvalues --   -0.01575  -0.00363   0.01223   0.03044   0.04505
 Alpha virt. eigenvalues --    0.05237   0.05258   0.05396   0.05527   0.06101
 Alpha virt. eigenvalues --    0.07431   0.09083   0.10708   0.12040   0.12964

  Beta  occ. eigenvalues --  -88.36710 -88.36677 -88.36622 -88.36430 -88.36211
  Beta  occ. eigenvalues --  -24.55233 -24.55175 -24.55130 -24.54890 -24.54782
  Beta  occ. eigenvalues --  -14.26217 -14.26198 -14.26128 -14.25967 -14.25556
  Beta  occ. eigenvalues --  -10.25522 -10.25461 -10.25432 -10.25167 -10.24995
  Beta  occ. eigenvalues --  -10.22264 -10.22204 -10.22125 -10.21980 -10.21692
  Beta  occ. eigenvalues --  -10.21255 -10.21234 -10.21157 -10.20960 -10.20694
  Beta  occ. eigenvalues --  -10.20676 -10.20579 -10.20508 -10.19906 -10.19793
  Beta  occ. eigenvalues --  -10.19756 -10.19739 -10.19700 -10.19472 -10.19303
  Beta  occ. eigenvalues --  -10.19219 -10.19174 -10.19135 -10.19067 -10.19044
  Beta  occ. eigenvalues --  -10.18999 -10.18940 -10.18880 -10.18441 -10.17688
  Beta  occ. eigenvalues --  -10.17595 -10.17562 -10.17558 -10.17541 -10.17445
  Beta  occ. eigenvalues --  -10.17382 -10.17317 -10.17117 -10.17049 -10.17004
  Beta  occ. eigenvalues --   -7.97551  -7.97513  -7.97464  -7.97269  -7.97064
  Beta  occ. eigenvalues --   -5.98815  -5.98777  -5.98727  -5.98532  -5.98318
  Beta  occ. eigenvalues --   -5.98263  -5.98224  -5.98177  -5.97981  -5.97820
  Beta  occ. eigenvalues --   -5.97784  -5.97763  -5.97733  -5.97539  -5.97354
  Beta  occ. eigenvalues --   -1.39880  -1.39821  -1.39783  -1.39529  -1.39402
  Beta  occ. eigenvalues --   -1.14991  -1.14881  -1.14792  -1.14647  -1.14121
  Beta  occ. eigenvalues --   -1.09795  -1.09495  -1.09184  -1.08930  -1.08415
  Beta  occ. eigenvalues --   -1.01683  -1.01189  -1.00686  -1.00422  -0.98968
  Beta  occ. eigenvalues --   -0.98316  -0.98075  -0.97716  -0.97057  -0.96391
  Beta  occ. eigenvalues --   -0.93661  -0.92813  -0.92554  -0.92331  -0.91896
  Beta  occ. eigenvalues --   -0.91482  -0.91247  -0.90137  -0.88856  -0.87795
  Beta  occ. eigenvalues --   -0.83564  -0.82793  -0.81966  -0.81667  -0.81058
  Beta  occ. eigenvalues --   -0.80872  -0.80654  -0.80202  -0.79322  -0.78832
  Beta  occ. eigenvalues --   -0.74793  -0.74520  -0.74288  -0.73719  -0.73560
  Beta  occ. eigenvalues --   -0.73536  -0.73315  -0.73244  -0.73021  -0.72918
  Beta  occ. eigenvalues --   -0.71393  -0.71120  -0.70711  -0.70338  -0.70069
  Beta  occ. eigenvalues --   -0.65826  -0.65583  -0.65535  -0.65347  -0.64738
  Beta  occ. eigenvalues --   -0.64194  -0.63881  -0.63644  -0.63593  -0.63537
  Beta  occ. eigenvalues --   -0.63410  -0.63188  -0.63177  -0.63040  -0.62858
  Beta  occ. eigenvalues --   -0.62705  -0.62622  -0.62356  -0.61779  -0.61278
  Beta  occ. eigenvalues --   -0.59711  -0.59052  -0.58650  -0.58632  -0.58541
  Beta  occ. eigenvalues --   -0.58285  -0.58200  -0.57963  -0.57890  -0.57766
  Beta  occ. eigenvalues --   -0.57518  -0.57267  -0.57132  -0.57096  -0.57006
  Beta  occ. eigenvalues --   -0.56247  -0.55248  -0.54834  -0.54779  -0.54569
  Beta  occ. eigenvalues --   -0.54269  -0.53967  -0.53519  -0.53310  -0.53198
  Beta  occ. eigenvalues --   -0.52414  -0.52240  -0.52018  -0.51875  -0.51675
  Beta  occ. eigenvalues --   -0.51213  -0.50323  -0.50022  -0.49642  -0.49628
  Beta  occ. eigenvalues --   -0.49282  -0.48458  -0.48352  -0.48236  -0.48038
  Beta  occ. eigenvalues --   -0.47993  -0.45737  -0.44716  -0.43451  -0.42373
  Beta  occ. eigenvalues --   -0.41674  -0.41430  -0.41274  -0.41082  -0.40643
  Beta  occ. eigenvalues --   -0.40158  -0.40104  -0.39808  -0.39634  -0.39450
  Beta  occ. eigenvalues --   -0.39393  -0.37311  -0.37162  -0.37155  -0.36938
  Beta  occ. eigenvalues --   -0.36703  -0.35871  -0.34388  -0.32638  -0.31089
  Beta  occ. eigenvalues --   -0.30083
  Beta virt. eigenvalues --   -0.01575  -0.00363   0.01223   0.03044   0.04505
  Beta virt. eigenvalues --    0.05237   0.05258   0.05396   0.05527   0.06101
  Beta virt. eigenvalues --    0.07431   0.09083   0.10708   0.12040   0.12964

 Mulliken charges and spin densities:
               1          2
     1  C   -0.076784   0.000000
     2  C    0.060251  -0.000000
     3  C   -0.047753   0.000000
     4  C    0.137566   0.000000
     5  N   -0.233226  -0.000000
     6  C    0.091202   0.000000
     7  C   -0.181957   0.000000
     8  C    0.109105  -0.000000
     9  F   -0.131061   0.000000
    10  C    0.019575   0.000000
    11  C   -0.170059  -0.000000
    12  S    0.227316   0.000000
    13  C   -0.052135  -0.000000
    14  C    0.063960   0.000000
    15  C   -0.025535  -0.000000
    16  C    0.145227  -0.000000
    17  N   -0.230593  -0.000000
    18  C    0.105528   0.000000
    19  C   -0.188607   0.000000
    20  C    0.105942  -0.000000
    21  F   -0.130001  -0.000000
    22  C    0.019885   0.000000
    23  C   -0.172671  -0.000000
    24  S    0.235304  -0.000000
    25  C   -0.047678   0.000000
    26  C    0.061328  -0.000000
    27  C   -0.024569  -0.000000
    28  C    0.147242   0.000000
    29  N   -0.230682  -0.000000
    30  C    0.105277   0.000000
    31  C   -0.189406  -0.000000
    32  C    0.105427   0.000000
    33  F   -0.129992   0.000000
    34  C    0.021827   0.000000
    35  C   -0.169942  -0.000000
    36  S    0.231969  -0.000000
    37  C   -0.053228   0.000000
    38  C    0.063915   0.000000
    39  C   -0.025119  -0.000000
    40  C    0.145465   0.000000
    41  N   -0.230669  -0.000000
    42  C    0.105714   0.000000
    43  C   -0.188952  -0.000000
    44  C    0.106343  -0.000000
    45  F   -0.129529  -0.000000
    46  C    0.021682   0.000000
    47  C   -0.168997  -0.000000
    48  S    0.229719   0.000000
    49  C   -0.053674   0.000000
    50  C    0.062731   0.000000
    51  C   -0.025231  -0.000000
    52  C    0.150634   0.000000
    53  N   -0.229689   0.000000
    54  C    0.104275  -0.000000
    55  C   -0.190408  -0.000000
    56  C    0.085543   0.000000
    57  F   -0.132874  -0.000000
    58  C    0.036755  -0.000000
    59  C   -0.147907   0.000000
    60  S    0.222305  -0.000000
    61  H    0.022902  -0.000000
    62  H    0.027148  -0.000000
    63  H    0.029723   0.000000
    64  H    0.031514   0.000000
    65  H    0.029562   0.000000
    66  H    0.030128   0.000000
    67  H    0.030545   0.000000
    68  H    0.029873   0.000000
    69  H    0.027649   0.000000
    70  H    0.020223  -0.000000
    71  H    0.030659   0.000000
    72  H    0.038830  -0.000000
    73  H    0.030334  -0.000000
    74  H    0.030514  -0.000000
    75  H    0.031343  -0.000000
    76  H    0.029574  -0.000000
    77  H    0.030562   0.000000
    78  H    0.029435   0.000000
    79  H    0.030994   0.000000
    80  H    0.029494   0.000000
    81  H    0.032318  -0.000000
    82  H    0.056591  -0.000000
 Sum of Mulliken charges =  -0.00000  -0.00000

 Dipole moment (field-independent basis, Debye):
    X=             -1.6467    Y=              0.6132    Z=              0.2723  Tot=              1.7781
 Quadrupole moment (field-independent basis, Debye-Ang):
   XX=           -262.2894   YY=           -342.6822   ZZ=           -371.4382
   XY=             14.7426   XZ=             -3.6014   YZ=             -5.7359

 Normal termination of Gaussian 16 at Fri Jul 24 19:49:20 2020.
