 Gaussian 16, Revision A.03,
 Gaussian 16:  EM64L-G16RevA.03 25-Dec-2016

 ---------------------------------------------------------------
 #P uLC-wPBE/cc-pVDZ iop(3/107=0088200000, 3/108=0088200000) opt
 ---------------------------------------------------------------

 -------
 H58 C84
 -------
 Symbolic Z-matrix:
 Charge =  0 Multiplicity = 1

 SCF Done:  E(ULC-wPBE) =  -3232.42544109     A.U. after   16 cycles
 SCF Done:  E(ULC-wPBE) =  -3232.52269004     A.U. after   16 cycles
 SCF Done:  E(ULC-wPBE) =  -3232.61537205     A.U. after   14 cycles
 SCF Done:  E(ULC-wPBE) =  -3232.64490836     A.U. after   15 cycles
 SCF Done:  E(ULC-wPBE) =  -3232.65658094     A.U. after   16 cycles
 SCF Done:  E(ULC-wPBE) =  -3232.66018682     A.U. after   15 cycles
 SCF Done:  E(ULC-wPBE) =  -3232.66180046     A.U. after   14 cycles
 SCF Done:  E(ULC-wPBE) =  -3232.66220346     A.U. after   13 cycles
 SCF Done:  E(ULC-wPBE) =  -3232.66237103     A.U. after   13 cycles
 SCF Done:  E(ULC-wPBE) =  -3232.66239061     A.U. after   11 cycles
 SCF Done:  E(ULC-wPBE) =  -3232.66240489     A.U. after   11 cycles
 SCF Done:  E(ULC-wPBE) =  -3232.66240668     A.U. after    8 cycles
 SCF Done:  E(ULC-wPBE) =  -3232.66240738     A.U. after    7 cycles
 SCF Done:  E(ULC-wPBE) =  -3232.66240779     A.U. after    7 cycles
 SCF Done:  E(ULC-wPBE) =  -3232.66240773     A.U. after    6 cycles
 Optimization completed.
    -- Stationary point found.

                         Standard orientation:
 ---------------------------------------------------------------------
 Center     Atomic      Atomic             Coordinates (Angstroms)
 Number     Number       Type             X           Y           Z
 ---------------------------------------------------------------------
      1          6           0       29.669092    0.000253   -0.000013
      2          6           0       28.961736   -1.184988   -0.252660
      3          6           0       27.560637   -1.184903   -0.252422
      4          6           0       26.833977    0.000142    0.000026
      5          6           0       27.560552    1.185240    0.252491
      6          6           0       28.961650    1.185436    0.252652
      7          6           0       25.347959    0.000097    0.000025
      8          6           0       24.615461   -0.792189   -0.911323
      9          6           0       23.217046   -0.792365   -0.911425
     10          6           0       22.484304    0.000044    0.000004
     11          6           0       23.217003    0.792476    0.911449
     12          6           0       24.615417    0.792349    0.911359
     13          6           0       20.999639    0.000026   -0.000015
     14          6           0       20.266879    1.177137    0.269795
     15          6           0       18.868614    1.177218    0.269470
     16          6           0       18.135930   -0.000010   -0.000039
     17          6           0       18.868648   -1.177221   -0.269545
     18          6           0       20.266912   -1.177101   -0.269844
     19          6           0       16.651348   -0.000022   -0.000047
     20          6           0       15.918453    1.110439   -0.474935
     21          6           0       14.520204    1.110318   -0.475038
     22          6           0       13.787347   -0.000057   -0.000042
     23          6           0       14.520231   -1.110411    0.474953
     24          6           0       15.918482   -1.110502    0.474844
     25          6           0       12.302885   -0.000066   -0.000035
     26          6           0       11.570053   -1.178895   -0.262732
     27          6           0       10.171812   -1.178926   -0.262698
     28          6           0        9.439002   -0.000093   -0.000032
     29          6           0       10.171793    1.178750    0.262630
     30          6           0       11.570033    1.178746    0.262671
     31          6           0        7.954533   -0.000111   -0.000031
     32          6           0        7.221730   -1.110022    0.476161
     33          6           0        5.823491   -1.110009    0.476213
     34          6           0        5.090655   -0.000119   -0.000001
     35          6           0        5.823478    1.109768   -0.476247
     36          6           0        7.221715    1.109796   -0.476220
     37          6           0        3.606183   -0.000110    0.000021
     38          6           0        2.873313   -1.179253   -0.261061
     39          6           0        1.475062   -1.179367   -0.260808
     40          6           0        0.742260   -0.000098    0.000059
     41          6           0        1.475081    1.179168    0.260891
     42          6           0        2.873332    1.179039    0.261111
     43          6           0       -0.742310   -0.000084    0.000065
     44          6           0       -1.474996   -1.106253    0.484744
     45          6           0       -2.873251   -1.106061    0.485161
     46          6           0       -3.605951   -0.000074    0.000050
     47          6           0       -2.873238    1.105907   -0.485054
     48          6           0       -1.474984    1.106093   -0.484610
     49          6           0       -5.090512   -0.000066    0.000050
     50          6           0       -5.823372   -0.607687    1.043794
     51          6           0       -7.221632   -0.607630    1.043820
     52          6           0       -7.954516   -0.000059    0.000048
     53          6           0       -7.221626    0.607516   -1.043719
     54          6           0       -5.823367    0.607568   -1.043690
     55          6           0       -9.439092   -0.000050    0.000048
     56          6           0      -10.171812    1.105248   -0.486606
     57          6           0      -11.570060    1.105409   -0.486267
     58          6           0      -12.302801   -0.000026    0.000028
     59          6           0      -11.570086   -1.105466    0.486337
     60          6           0      -10.171835   -1.105334    0.486694
     61          6           0      -13.787380   -0.000010    0.000015
     62          6           0      -14.520211   -1.180002   -0.257515
     63          6           0      -15.918466   -1.179876   -0.257724
     64          6           0      -16.651327    0.000013   -0.000024
     65          6           0      -15.918458    1.179886    0.257695
     66          6           0      -14.520200    1.179987    0.257528
     67          6           0      -18.135804    0.000017   -0.000031
     68          6           0      -18.868657   -1.107783    0.480896
     69          6           0      -20.266923   -1.107837    0.480846
     70          6           0      -20.999808    0.000032   -0.000033
     71          6           0      -20.266911    1.107894   -0.480909
     72          6           0      -18.868644    1.107827   -0.480961
     73          6           0      -22.484471    0.000050   -0.000027
     74          6           0      -23.217093   -1.178543   -0.263332
     75          6           0      -24.615499   -1.178318   -0.263756
     76          6           0      -25.347888    0.000083   -0.000023
     77          6           0      -24.615470    1.178466    0.263706
     78          6           0      -23.217064    1.178665    0.263266
     79          6           0      -26.833994    0.000107   -0.000016
     80          6           0      -27.560698   -0.781558   -0.925828
     81          6           0      -28.961802   -0.781637   -0.925893
     82          6           0      -29.669258    0.000168   -0.000022
     83          6           0      -28.961775    0.781942    0.925850
     84          6           0      -27.560670    0.781798    0.925796
     85          1           0       30.768610    0.000302   -0.000024
     86          1           0       29.505727   -2.121668   -0.443115
     87          1           0       27.016295   -2.125063   -0.424187
     88          1           0       27.016142    2.125358    0.424273
     89          1           0       29.505568    2.122166    0.443079
     90          1           0       25.153789   -1.392612   -1.659156
     91          1           0       22.679382   -1.392698   -1.659789
     92          1           0       22.679301    1.392792    1.659798
     93          1           0       25.153714    1.392791    1.659203
     94          1           0       20.805044    2.115882    0.466358
     95          1           0       18.330502    2.107932    0.501271
     96          1           0       18.330556   -2.107940   -0.501368
     97          1           0       20.805102   -2.115834   -0.466397
     98          1           0       16.456127    1.976907   -0.886773
     99          1           0       13.982462    1.976701   -0.887002
    100          1           0       13.982505   -1.976803    0.886923
    101          1           0       16.456170   -1.976965    0.886672
    102          1           0       12.107882   -2.106224   -0.508270
    103          1           0        9.633990   -2.106278   -0.508180
    104          1           0        9.633945    2.106092    0.508100
    105          1           0       12.107849    2.106085    0.508202
    106          1           0        7.759591   -1.975948    0.888918
    107          1           0        5.285699   -1.975937    0.889052
    108          1           0        5.285667    1.975686   -0.889083
    109          1           0        7.759561    1.975733   -0.888971
    110          1           0        3.411051   -2.106949   -0.505416
    111          1           0        0.937337   -2.107138   -0.504883
    112          1           0        0.937376    2.106947    0.504980
    113          1           0        3.411087    2.106731    0.505451
    114          1           0       -0.936853   -1.977291    0.886256
    115          1           0       -3.411326   -1.991588    0.853724
    116          1           0       -3.411308    1.991430   -0.853635
    117          1           0       -0.936827    1.977131   -0.886104
    118          1           0       -5.285730   -1.057110    1.891392
    119          1           0       -7.759256   -1.056989    1.891457
    120          1           0       -7.759244    1.056881   -1.891358
    121          1           0       -5.285723    1.056999   -1.891283
    122          1           0       -9.633757    1.990275   -0.856395
    123          1           0      -12.108162    1.975870   -0.889070
    124          1           0      -12.108207   -1.975916    0.889143
    125          1           0       -9.633802   -1.990374    0.856481
    126          1           0      -13.982525   -2.108475   -0.498998
    127          1           0      -16.456291   -2.108242   -0.499335
    128          1           0      -16.456277    2.108263    0.499277
    129          1           0      -13.982507    2.108449    0.499042
    130          1           0      -18.330861   -1.971974    0.897392
    131          1           0      -20.804651   -1.972066    0.897295
    132          1           0      -20.804623    1.972134   -0.897355
    133          1           0      -18.330843    1.972015   -0.897456
    134          1           0      -22.678994   -2.110466   -0.490321
    135          1           0      -25.154132   -2.117767   -0.455774
    136          1           0      -25.154078    2.117929    0.455728
    137          1           0      -22.678943    2.110576    0.490234
    138          1           0      -27.016581   -1.376518   -1.673935
    139          1           0      -29.505692   -1.391335   -1.662124
    140          1           0      -30.768775    0.000166   -0.000006
    141          1           0      -29.505645    1.391672    1.662070
    142          1           0      -27.016529    1.376717    1.673918
 ---------------------------------------------------------------------

 Alpha  occ. eigenvalues --   -0.33526  -0.33414  -0.33319  -0.32006  -0.31674
 Alpha  occ. eigenvalues --   -0.31164  -0.30518  -0.29772  -0.28991  -0.28099
 Alpha  occ. eigenvalues --   -0.27989  -0.27970  -0.27952  -0.27929  -0.27905
 Alpha  occ. eigenvalues --   -0.27883  -0.27852  -0.27832  -0.27810  -0.27795
 Alpha  occ. eigenvalues --   -0.27768  -0.27760  -0.27632  -0.27632  -0.27213
 Alpha  occ. eigenvalues --   -0.26340  -0.25422  -0.24571  -0.23797  -0.23197
 Alpha  occ. eigenvalues --   -0.22813
 Alpha virt. eigenvalues --   -0.04618  -0.04144  -0.03448  -0.02594  -0.01637
 Alpha virt. eigenvalues --   -0.00619  -0.00163  -0.00113  -0.00048   0.00030
 Alpha virt. eigenvalues --    0.00121   0.00228   0.00338   0.00417   0.00442

  Beta  occ. eigenvalues --   -9.96599  -9.96595  -9.96590  -9.96587  -9.96585
  Beta  occ. eigenvalues --   -9.96583  -9.96582  -9.96582  -9.96578  -9.96575
  Beta  occ. eigenvalues --   -9.96574  -9.96573  -9.96570  -9.96569  -9.96557
  Beta  occ. eigenvalues --   -9.96552  -9.96550  -9.96543  -9.96541  -9.96530
  Beta  occ. eigenvalues --   -9.96506  -9.96501  -9.96471  -9.96459  -9.96450
  Beta  occ. eigenvalues --   -9.96439  -9.95722  -9.95720  -9.95712  -9.95712
  Beta  occ. eigenvalues --   -9.95710  -9.95710  -9.95709  -9.95708  -9.95707
  Beta  occ. eigenvalues --   -9.95706  -9.95703  -9.95701  -9.95693  -9.95692
  Beta  occ. eigenvalues --   -9.95691  -9.95690  -9.95688  -9.95686  -9.95683
  Beta  occ. eigenvalues --   -9.95683  -9.95682  -9.95682  -9.95680  -9.95679
  Beta  occ. eigenvalues --   -9.95679  -9.95679  -9.95678  -9.95678  -9.95674
  Beta  occ. eigenvalues --   -9.95673  -9.95664  -9.95663  -9.95662  -9.95661
  Beta  occ. eigenvalues --   -9.95659  -9.95658  -9.95649  -9.95648  -9.95634
  Beta  occ. eigenvalues --   -9.95633  -9.95628  -9.95626  -9.95620  -9.95618
  Beta  occ. eigenvalues --   -9.95594  -9.95593  -9.95586  -9.95585  -9.95565
  Beta  occ. eigenvalues --   -9.95562  -9.95561  -9.95558  -9.95493  -9.95489
  Beta  occ. eigenvalues --   -9.95486  -9.95485  -9.95485  -9.95482  -0.85043
  Beta  occ. eigenvalues --   -0.84951  -0.84821  -0.84648  -0.84432  -0.84170
  Beta  occ. eigenvalues --   -0.83868  -0.83526  -0.83146  -0.82738  -0.82312
  Beta  occ. eigenvalues --   -0.81896  -0.81538  -0.81333  -0.78390  -0.77925
  Beta  occ. eigenvalues --   -0.77304  -0.76579  -0.75782  -0.74926  -0.74025
  Beta  occ. eigenvalues --   -0.73435  -0.73375  -0.73297  -0.73200  -0.73085
  Beta  occ. eigenvalues --   -0.73085  -0.72953  -0.72811  -0.72664  -0.72512
  Beta  occ. eigenvalues --   -0.72370  -0.72240  -0.72134  -0.72114  -0.72052
  Beta  occ. eigenvalues --   -0.72032  -0.71124  -0.70129  -0.69160  -0.68279
  Beta  occ. eigenvalues --   -0.67632  -0.64004  -0.63296  -0.62406  -0.62126
  Beta  occ. eigenvalues --   -0.61953  -0.61697  -0.61451  -0.61362  -0.60960
  Beta  occ. eigenvalues --   -0.60499  -0.60498  -0.60000  -0.59591  -0.59475
  Beta  occ. eigenvalues --   -0.58933  -0.58760  -0.58411  -0.58025  -0.57921
  Beta  occ. eigenvalues --   -0.57501  -0.57394  -0.57173  -0.56986  -0.56875
  Beta  occ. eigenvalues --   -0.56460  -0.56146  -0.55931  -0.55825  -0.53425
  Beta  occ. eigenvalues --   -0.53292  -0.53095  -0.52825  -0.52473  -0.52022
  Beta  occ. eigenvalues --   -0.51471  -0.50816  -0.50083  -0.49332  -0.48670
  Beta  occ. eigenvalues --   -0.48240  -0.48224  -0.48075  -0.47952  -0.47553
  Beta  occ. eigenvalues --   -0.47389  -0.47387  -0.47075  -0.46534  -0.46001
  Beta  occ. eigenvalues --   -0.45422  -0.45186  -0.45174  -0.44905  -0.44892
  Beta  occ. eigenvalues --   -0.44845  -0.44582  -0.44450  -0.44393  -0.44089
  Beta  occ. eigenvalues --   -0.44065  -0.44010  -0.43786  -0.43680  -0.43595
  Beta  occ. eigenvalues --   -0.43423  -0.43348  -0.43345  -0.43226  -0.43215
  Beta  occ. eigenvalues --   -0.43109  -0.42859  -0.42794  -0.42710  -0.42605
  Beta  occ. eigenvalues --   -0.42483  -0.42359  -0.42208  -0.42158  -0.42055
  Beta  occ. eigenvalues --   -0.41931  -0.41790  -0.41670  -0.41518  -0.41467
  Beta  occ. eigenvalues --   -0.41429  -0.41233  -0.40229  -0.39518  -0.39341
  Beta  occ. eigenvalues --   -0.39322  -0.39259  -0.39145  -0.38775  -0.38538
  Beta  occ. eigenvalues --   -0.38430  -0.38350  -0.38328  -0.37842  -0.37610
  Beta  occ. eigenvalues --   -0.37516  -0.37218  -0.36878  -0.36775  -0.36647
  Beta  occ. eigenvalues --   -0.36489  -0.36381  -0.36198  -0.36123  -0.36071
  Beta  occ. eigenvalues --   -0.35811  -0.35572  -0.35475  -0.35168  -0.35127
  Beta  occ. eigenvalues --   -0.34801  -0.34775  -0.34547  -0.34516  -0.34338
  Beta  occ. eigenvalues --   -0.34272  -0.34218  -0.34199  -0.33998  -0.33828
  Beta  occ. eigenvalues --   -0.33526  -0.33414  -0.33319  -0.32006  -0.31674
  Beta  occ. eigenvalues --   -0.31164  -0.30518  -0.29772  -0.28991  -0.28099
  Beta  occ. eigenvalues --   -0.27989  -0.27970  -0.27952  -0.27929  -0.27905
  Beta  occ. eigenvalues --   -0.27883  -0.27852  -0.27832  -0.27810  -0.27795
  Beta  occ. eigenvalues --   -0.27768  -0.27760  -0.27632  -0.27632  -0.27213
  Beta  occ. eigenvalues --   -0.26340  -0.25422  -0.24571  -0.23797  -0.23197
  Beta  occ. eigenvalues --   -0.22813
  Beta virt. eigenvalues --   -0.04618  -0.04144  -0.03448  -0.02594  -0.01637
  Beta virt. eigenvalues --   -0.00619  -0.00163  -0.00113  -0.00048   0.00030
  Beta virt. eigenvalues --    0.00121   0.00228   0.00338   0.00417   0.00442

 Mulliken charges and spin densities:
               1          2
     1  C    0.025743  -0.000000
     2  C    0.032562  -0.000000
     3  C    0.001892   0.000000
     4  C    0.023576  -0.000000
     5  C    0.001888   0.000000
     6  C    0.032560   0.000000
     7  C    0.040410  -0.000000
     8  C    0.010120   0.000000
     9  C    0.008384  -0.000000
    10  C    0.039665   0.000000
    11  C    0.008385  -0.000000
    12  C    0.010120   0.000000
    13  C    0.036048  -0.000000
    14  C    0.010387  -0.000000
    15  C    0.010229   0.000000
    16  C    0.035928   0.000000
    17  C    0.010230   0.000000
    18  C    0.010389  -0.000000
    19  C    0.040362  -0.000000
    20  C    0.008885  -0.000000
    21  C    0.008469   0.000000
    22  C    0.039369  -0.000000
    23  C    0.008469   0.000000
    24  C    0.008886  -0.000000
    25  C    0.039605   0.000000
    26  C    0.008712  -0.000000
    27  C    0.008769  -0.000000
    28  C    0.039478   0.000000
    29  C    0.008771   0.000000
    30  C    0.008713  -0.000000
    31  C    0.039484  -0.000000
    32  C    0.008798   0.000000
    33  C    0.008686   0.000000
    34  C    0.039586  -0.000000
    35  C    0.008687  -0.000000
    36  C    0.008798   0.000000
    37  C    0.039417   0.000000
    38  C    0.008485   0.000000
    39  C    0.008966  -0.000000
    40  C    0.040239  -0.000000
    41  C    0.008963   0.000000
    42  C    0.008484  -0.000000
    43  C    0.035858   0.000000
    44  C    0.010383   0.000000
    45  C    0.010344   0.000000
    46  C    0.035964   0.000000
    47  C    0.010346  -0.000000
    48  C    0.010385   0.000000
    49  C    0.040047  -0.000000
    50  C    0.008719   0.000000
    51  C    0.008648   0.000000
    52  C    0.040148   0.000000
    53  C    0.008645  -0.000000
    54  C    0.008719   0.000000
    55  C    0.036043  -0.000000
    56  C    0.010256  -0.000000
    57  C    0.010327   0.000000
    58  C    0.035986  -0.000000
    59  C    0.010327   0.000000
    60  C    0.010255  -0.000000
    61  C    0.040275   0.000000
    62  C    0.008833   0.000000
    63  C    0.008568   0.000000
    64  C    0.039360   0.000000
    65  C    0.008570  -0.000000
    66  C    0.008831  -0.000000
    67  C    0.039245  -0.000000
    68  C    0.008480   0.000000
    69  C    0.008874   0.000000
    70  C    0.040355  -0.000000
    71  C    0.008871  -0.000000
    72  C    0.008478   0.000000
    73  C    0.035551   0.000000
    74  C    0.009845   0.000000
    75  C    0.011715  -0.000000
    76  C    0.037322   0.000000
    77  C    0.011715   0.000000
    78  C    0.009846  -0.000000
    79  C    0.024439  -0.000000
    80  C    0.001876  -0.000000
    81  C    0.032356   0.000000
    82  C    0.025576  -0.000000
    83  C    0.032358  -0.000000
    84  C    0.001874   0.000000
    85  H   -0.021356   0.000000
    86  H   -0.019910  -0.000000
    87  H   -0.028970  -0.000000
    88  H   -0.028968  -0.000000
    89  H   -0.019910   0.000000
    90  H   -0.028378   0.000000
    91  H   -0.028559   0.000000
    92  H   -0.028560   0.000000
    93  H   -0.028376   0.000000
    94  H   -0.028879   0.000000
    95  H   -0.028962  -0.000000
    96  H   -0.028962   0.000000
    97  H   -0.028879   0.000000
    98  H   -0.028300   0.000000
    99  H   -0.028573   0.000000
   100  H   -0.028573   0.000000
   101  H   -0.028300   0.000000
   102  H   -0.028590  -0.000000
   103  H   -0.028611   0.000000
   104  H   -0.028611   0.000000
   105  H   -0.028590  -0.000000
   106  H   -0.028576   0.000000
   107  H   -0.028601   0.000000
   108  H   -0.028600   0.000000
   109  H   -0.028576  -0.000000
   110  H   -0.028492   0.000000
   111  H   -0.028300   0.000000
   112  H   -0.028299   0.000000
   113  H   -0.028492  -0.000000
   114  H   -0.028821  -0.000000
   115  H   -0.028831   0.000000
   116  H   -0.028831  -0.000000
   117  H   -0.028821  -0.000000
   118  H   -0.028232   0.000000
   119  H   -0.028201  -0.000000
   120  H   -0.028200  -0.000000
   121  H   -0.028232  -0.000000
   122  H   -0.028867  -0.000000
   123  H   -0.028811   0.000000
   124  H   -0.028811   0.000000
   125  H   -0.028867  -0.000000
   126  H   -0.028373  -0.000000
   127  H   -0.028558   0.000000
   128  H   -0.028559  -0.000000
   129  H   -0.028372  -0.000000
   130  H   -0.028711  -0.000000
   131  H   -0.028361   0.000000
   132  H   -0.028361   0.000000
   133  H   -0.028711   0.000000
   134  H   -0.029112   0.000000
   135  H   -0.028682  -0.000000
   136  H   -0.028682  -0.000000
   137  H   -0.029113   0.000000
   138  H   -0.028640   0.000000
   139  H   -0.019842   0.000000
   140  H   -0.021374   0.000000
   141  H   -0.019842  -0.000000
   142  H   -0.028639   0.000000
 Sum of Mulliken charges =  -0.00000   0.00000

 Dipole moment (field-independent basis, Debye):
    X=             -0.0052    Y=              0.0000    Z=             -0.0000  Tot=              0.0052
 Quadrupole moment (field-independent basis, Debye-Ang):
   XX=           -408.7719   YY=           -444.5817   ZZ=           -496.9551
   XY=              0.0006   XZ=             -0.0010   YZ=              0.1888

 Normal termination of Gaussian 16 at Fri Jul 24 17:36:44 2020.
