 Gaussian 16, Revision A.03,
 Gaussian 16:  EM64L-G16RevA.03 25-Dec-2016

 ---------------------------------------------------------------
 #P uLC-wPBE/cc-pVDZ iop(3/107=0441800000, 3/108=0441800000) opt
 ---------------------------------------------------------------

 -----------
 H86 C98 O14
 -----------
 Symbolic Z-matrix:
 Charge =  0 Multiplicity = 1

 SCF Done:  E(ULC-wPBE) =  -4835.88253162     A.U. after   16 cycles
 SCF Done:  E(ULC-wPBE) =  -4836.00159069     A.U. after   14 cycles
 SCF Done:  E(ULC-wPBE) =  -4836.14457771     A.U. after   14 cycles
 SCF Done:  E(ULC-wPBE) =  -4836.19291625     A.U. after   14 cycles
 SCF Done:  E(ULC-wPBE) =  -4836.21068404     A.U. after   15 cycles
 SCF Done:  E(ULC-wPBE) =  -4836.21926517     A.U. after   16 cycles
 SCF Done:  E(ULC-wPBE) =  -4836.22753491     A.U. after   14 cycles
 SCF Done:  E(ULC-wPBE) =  -4836.23113823     A.U. after   16 cycles
 SCF Done:  E(ULC-wPBE) =  -4836.23388549     A.U. after   16 cycles
 SCF Done:  E(ULC-wPBE) =  -4836.23474648     A.U. after   14 cycles
 SCF Done:  E(ULC-wPBE) =  -4836.24064146     A.U. after   11 cycles
 SCF Done:  E(ULC-wPBE) =  -4836.24068592     A.U. after   11 cycles
 SCF Done:  E(ULC-wPBE) =  -4836.24072394     A.U. after   11 cycles
 SCF Done:  E(ULC-wPBE) =  -4836.24073670     A.U. after   11 cycles
 SCF Done:  E(ULC-wPBE) =  -4836.24073825     A.U. after   10 cycles
 SCF Done:  E(ULC-wPBE) =  -4836.24073883     A.U. after   10 cycles
 SCF Done:  E(ULC-wPBE) =  -4836.24073926     A.U. after    7 cycles
 SCF Done:  E(ULC-wPBE) =  -4836.24073935     A.U. after    6 cycles
 SCF Done:  E(ULC-wPBE) =  -4836.24073947     A.U. after    5 cycles
 SCF Done:  E(ULC-wPBE) =  -4836.24073953     A.U. after    5 cycles
 Optimization completed.
    -- Stationary point found.

                         Standard orientation:
 ---------------------------------------------------------------------
 Center     Atomic      Atomic             Coordinates (Angstroms)
 Number     Number       Type             X           Y           Z
 ---------------------------------------------------------------------
      1          6           0      -29.289268   -0.752577   -0.937460
      2          6           0      -28.652553   -1.387454    0.121100
      3          6           0      -27.268292   -1.327308    0.238074
      4          8           0      -26.576697   -1.919484    1.241206
      5          6           0      -27.295336   -2.602359    2.233502
      6          6           0      -26.508571   -0.625351   -0.710574
      7          6           0      -27.174329    0.003047   -1.753362
      8          6           0      -28.555730   -0.055346   -1.879415
      9          6           0      -25.026233   -0.574682   -0.615334
     10          6           0      -24.272421   -1.738807   -0.596651
     11          6           0      -22.886962   -1.716447   -0.540326
     12          6           0      -22.214738   -0.502613   -0.490104
     13          6           0      -22.955851    0.678932   -0.501075
     14          6           0      -24.343190    0.649592   -0.565435
     15          8           0      -25.110269    1.766068   -0.589851
     16          6           0      -24.476135    3.014391   -0.510240
     17          6           0      -20.732563   -0.454154   -0.427997
     18          6           0      -20.095417    0.422754    0.453416
     19          6           0      -18.711013    0.479127    0.523202
     20          8           0      -18.033574    1.273090    1.382204
     21          6           0      -18.766182    2.131633    2.213503
     22          6           0      -17.927124   -0.338635   -0.304746
     23          6           0      -18.574094   -1.208578   -1.166243
     24          6           0      -19.960184   -1.276028   -1.235361
     25          6           0      -16.445324   -0.304714   -0.233452
     26          6           0      -15.729819   -1.425843    0.152149
     27          6           0      -14.341369   -1.427164    0.204482
     28          6           0      -13.636585   -0.281189   -0.133062
     29          6           0      -14.343091    0.855779   -0.533096
     30          6           0      -15.729189    0.847708   -0.590858
     31          8           0      -16.470076    1.898172   -1.008905
     32          6           0      -15.807767    3.084437   -1.353775
     33          6           0      -12.153654   -0.256354   -0.077264
     34          6           0      -11.489998    0.839779    0.473775
     35          6           0      -10.102755    0.877140    0.533564
     36          8           0       -9.409669    1.911316    1.068725
     37          6           0      -10.127654    2.978031    1.628512
     38          6           0       -9.340757   -0.190671    0.035732
     39          6           0      -10.018993   -1.273997   -0.503644
     40          6           0      -11.403570   -1.317377   -0.566553
     41          6           0       -7.856164   -0.155790    0.065396
     42          6           0       -7.154200    0.885061   -0.524529
     43          6           0       -5.768082    0.925014   -0.532942
     44          6           0       -5.040705   -0.095503    0.065458
     45          6           0       -5.728832   -1.148526    0.667680
     46          6           0       -7.117409   -1.183678    0.671287
     47          8           0       -7.833827   -2.176447    1.250185
     48          6           0       -7.141561   -3.207774    1.902657
     49          6           0       -3.556831   -0.078807    0.070177
     50          6           0       -2.873023    1.106581    0.339121
     51          6           0       -1.484542    1.143264    0.345372
     52          8           0       -0.772482    2.264849    0.610369
     53          6           0       -1.470543    3.440870    0.922932
     54          6           0       -0.741343   -0.016848    0.079071
     55          6           0       -1.439071   -1.187077   -0.181759
     56          6           0       -2.825085   -1.229806   -0.191171
     57          6           0        0.743495    0.009654    0.054265
     58          6           0        1.428099    0.883770   -0.777339
     59          6           0        2.813255    0.907945   -0.837573
     60          6           0        3.557500    0.042262   -0.046833
     61          6           0        2.887182   -0.841160    0.798854
     62          6           0        1.499370   -0.861599    0.853500
     63          8           0        0.800225   -1.691665    1.664060
     64          6           0        1.512109   -2.553207    2.512242
     65          6           0        5.040806    0.045860   -0.092366
     66          6           0        5.735416    1.254884   -0.115477
     67          6           0        7.123677    1.279173   -0.155518
     68          8           0        7.845919    2.425111   -0.169914
     69          6           0        7.158359    3.647632   -0.200439
     70          6           0        7.855420    0.082048   -0.177020
     71          6           0        7.146646   -1.110334   -0.161159
     72          6           0        5.761068   -1.141267   -0.114705
     73          6           0        9.340720    0.087879   -0.193677
     74          6           0       10.063649    0.746698    0.789965
     75          6           0       11.450248    0.743074    0.809593
     76          6           0       12.156524    0.069113   -0.178049
     77          6           0       11.447280   -0.595656   -1.178092
     78          6           0       10.058310   -0.589404   -1.191580
     79          8           0        9.321820   -1.209164   -2.144220
     80          6           0        9.992963   -1.863254   -3.188489
     81          6           0       13.640396    0.047714   -0.180269
     82          6           0       14.355608    1.214578    0.087379
     83          6           0       15.744695    1.215518    0.087444
     84          8           0       16.486449    2.322056    0.331533
     85          6           0       15.821497    3.515988    0.649053
     86          6           0       16.456389    0.035902   -0.179312
     87          6           0       15.727504   -1.116136   -0.435819
     88          6           0       14.340807   -1.122093   -0.443969
     89          6           0       17.941462    0.023356   -0.208796
     90          6           0       18.646859    0.876038   -1.045301
     91          6           0       20.032074    0.863835   -1.108680
     92          6           0       20.754967   -0.018428   -0.316848
     93          6           0       20.063728   -0.880096    0.534853
     94          6           0       18.676002   -0.863069    0.593495
     95          8           0       17.956601   -1.669313    1.410688
     96          6           0       18.646123   -2.535505    2.271814
     97          6           0       22.237842   -0.047533   -0.368286
     98          6           0       22.916887   -1.265512   -0.399331
     99          6           0       24.304420   -1.307028   -0.452761
    100          8           0       25.012740   -2.461087   -0.495448
    101          6           0       24.314326   -3.676292   -0.446233
    102          6           0       25.050414   -0.119159   -0.471438
    103          6           0       24.357762    1.081928   -0.433482
    104          6           0       22.972629    1.130473   -0.387824
    105          6           0       26.534146   -0.143690   -0.554373
    106          6           0       27.175551   -0.784330   -1.604952
    107          6           0       28.559180   -0.795432   -1.719067
    108          6           0       29.319636   -0.156903   -0.757045
    109          6           0       28.707441    0.488358    0.309663
    110          6           0       27.320949    0.498012    0.414653
    111          8           0       26.652280    1.104645    1.424702
    112          6           0       27.396716    1.727048    2.437509
    113          1           0      -30.374754   -0.810362   -1.017035
    114          1           0      -29.247032   -1.928080    0.853565
    115          1           0      -27.989765   -1.934560    2.765059
    116          1           0      -26.553527   -2.981616    2.942659
    117          1           0      -27.859696   -3.451115    1.818474
    118          1           0      -26.584778    0.553361   -2.485128
    119          1           0      -29.051522    0.442994   -2.711138
    120          1           0      -24.794793   -2.693905   -0.620822
    121          1           0      -22.327057   -2.650093   -0.512184
    122          1           0      -22.425686    1.628220   -0.485368
    123          1           0      -25.272904    3.764004   -0.525858
    124          1           0      -23.903451    3.120815    0.423346
    125          1           0      -23.805016    3.187580   -1.364962
    126          1           0      -20.706122    1.037099    1.110935
    127          1           0      -18.032278    2.686386    2.805715
    128          1           0      -19.426661    1.575296    2.895540
    129          1           0      -19.369423    2.844399    1.631120
    130          1           0      -17.968865   -1.840572   -1.816468
    131          1           0      -20.439568   -1.951352   -1.942491
    132          1           0      -16.282583   -2.321144    0.437450
    133          1           0      -13.808105   -2.316196    0.537812
    134          1           0      -13.784043    1.739023   -0.833166
    135          1           0      -15.124236    2.938836   -2.203778
    136          1           0      -15.242113    3.495928   -0.504160
    137          1           0      -16.585349    3.797687   -1.643108
    138          1           0      -12.080609    1.655342    0.884232
    139          1           0       -9.382248    3.679004    2.015891
    140          1           0      -10.746401    3.493170    0.878098
    141          1           0      -10.770749    2.645482    2.456939
    142          1           0       -9.436527   -2.107834   -0.892180
    143          1           0      -11.902181   -2.172619   -1.020336
    144          1           0       -7.718536    1.686430   -0.998796
    145          1           0       -5.250570    1.743374   -1.031693
    146          1           0       -5.156864   -1.931670    1.159227
    147          1           0       -6.530657   -2.825073    2.733727
    148          1           0       -6.495591   -3.768009    1.210024
    149          1           0       -7.904236   -3.882504    2.302608
    150          1           0       -3.448759    1.999338    0.570613
    151          1           0       -2.089505    3.319162    1.824291
    152          1           0       -0.711655    4.205710    1.112955
    153          1           0       -2.109874    3.770288    0.090039
    154          1           0       -0.871312   -2.092276   -0.391066
    155          1           0       -3.338814   -2.160261   -0.429089
    156          1           0        0.850272    1.562434   -1.402717
    157          1           0        3.316120    1.587610   -1.524206
    158          1           0        3.473268   -1.498593    1.436353
    159          1           0        2.149901   -1.996731    3.215003
    160          1           0        2.134950   -3.261770    1.945754
    161          1           0        0.762181   -3.112987    3.079006
    162          1           0        5.169115    2.182237   -0.077800
    163          1           0        6.543722    3.793878    0.700493
    164          1           0        7.923925    4.428264   -0.239358
    165          1           0        6.516806    3.730821   -1.090335
    166          1           0        7.705107   -2.044429   -0.194084
    167          1           0        5.237769   -2.096457   -0.122233
    168          1           0        9.515710    1.274358    1.568994
    169          1           0       11.984272    1.247095    1.614009
    170          1           0       12.003383   -1.099151   -1.965111
    171          1           0       10.618665   -1.168216   -3.767889
    172          1           0        9.216657   -2.272623   -3.841664
    173          1           0       10.620385   -2.687757   -2.817743
    174          1           0       13.804209    2.132935    0.273648
    175          1           0       16.601501    4.260641    0.833474
    176          1           0       15.206407    3.409810    1.555051
    177          1           0       15.184842    3.862056   -0.179015
    178          1           0       16.270833   -2.039906   -0.628152
    179          1           0       13.801780   -2.049755   -0.631559
    180          1           0       18.085822    1.568380   -1.670920
    181          1           0       20.552286    1.529787   -1.795608
    182          1           0       20.633075   -1.547968    1.176916
    183          1           0       17.882272   -3.067478    2.846698
    184          1           0       19.298185   -1.984889    2.966102
    185          1           0       19.250529   -3.268624    1.716375
    186          1           0       22.338482   -2.186289   -0.407939
    187          1           0       23.729209   -3.771795    0.480788
    188          1           0       25.071405   -4.465702   -0.471548
    189          1           0       23.642340   -3.797204   -1.309217
    190          1           0       24.929128    2.008868   -0.433393
    191          1           0       22.461606    2.091119   -0.343586
    192          1           0       26.564716   -1.288105   -2.352595
    193          1           0       29.035707   -1.301816   -2.557166
    194          1           0       30.407321   -0.154204   -0.826970
    195          1           0       29.322704    0.982003    1.057957
    196          1           0       28.050451    1.012282    2.959502
    197          1           0       26.669425    2.129165    3.149108
    198          1           0       28.008443    2.553855    2.045920
 ---------------------------------------------------------------------

 Alpha virt. eigenvalues --    0.83508   0.83538   0.83674   0.83891   0.83906
 Alpha virt. eigenvalues --    0.84033   0.84197   0.84286   0.84343   0.84389
 Alpha virt. eigenvalues --    0.84572   0.84604   0.84677   0.84801   0.84911

  Beta  occ. eigenvalues --  -19.02797 -19.02752 -19.02734 -19.02729 -19.02726
  Beta  occ. eigenvalues --  -19.02718 -19.02709 -19.02681 -19.02678 -19.02675
  Beta  occ. eigenvalues --  -19.02675 -19.02655 -19.02625 -19.02623 -10.20027
  Beta  occ. eigenvalues --  -10.20000 -10.19990 -10.19990 -10.19989 -10.19984
  Beta  occ. eigenvalues --  -10.19983 -10.19976 -10.19965 -10.19958 -10.19938
  Beta  occ. eigenvalues --  -10.19933 -10.19933 -10.19929 -10.19391 -10.19334
  Beta  occ. eigenvalues --  -10.19306 -10.19280 -10.19273 -10.19269 -10.19261
  Beta  occ. eigenvalues --  -10.19246 -10.19245 -10.19241 -10.19217 -10.19176
  Beta  occ. eigenvalues --  -10.19166 -10.19135 -10.15035 -10.15030 -10.15014
  Beta  occ. eigenvalues --  -10.15012 -10.15004 -10.14998 -10.14997 -10.14995
  Beta  occ. eigenvalues --  -10.14993 -10.14990 -10.14980 -10.14973 -10.14266
  Beta  occ. eigenvalues --  -10.14260 -10.14253 -10.14252 -10.14248 -10.14240
  Beta  occ. eigenvalues --  -10.14233 -10.14233 -10.14233 -10.14230 -10.14218
  Beta  occ. eigenvalues --  -10.14215 -10.14215 -10.14204 -10.14119 -10.14114
  Beta  occ. eigenvalues --  -10.13958 -10.13952 -10.13821 -10.13806 -10.13805
  Beta  occ. eigenvalues --  -10.13804 -10.13800 -10.13790 -10.13781 -10.13776
  Beta  occ. eigenvalues --  -10.13766 -10.13758 -10.13745 -10.13739 -10.13582
  Beta  occ. eigenvalues --  -10.13578 -10.13530 -10.13516 -10.13514 -10.13507
  Beta  occ. eigenvalues --  -10.13506 -10.13496 -10.13454 -10.13449 -10.13448
  Beta  occ. eigenvalues --  -10.13437 -10.13429 -10.13425 -10.12995 -10.12990
  Beta  occ. eigenvalues --  -10.12989 -10.12983 -10.12979 -10.12971 -10.12971
  Beta  occ. eigenvalues --  -10.12967 -10.12966 -10.12952 -10.12913 -10.12908
  Beta  occ. eigenvalues --  -10.12890 -10.12886  -1.22826  -1.22655  -1.22629
  Beta  occ. eigenvalues --   -1.22616  -1.22614  -1.22606  -1.22589  -1.22467
  Beta  occ. eigenvalues --   -1.22464  -1.22463  -1.22455  -1.22449  -1.22429
  Beta  occ. eigenvalues --   -1.22232  -1.04442  -1.04367  -1.04240  -1.04062
  Beta  occ. eigenvalues --   -1.03848  -1.03605  -1.03016  -1.02855  -1.02457
  Beta  occ. eigenvalues --   -1.02037  -1.01593  -1.01151  -1.00767  -1.00508
  Beta  occ. eigenvalues --   -0.97228  -0.96765  -0.96110  -0.95340  -0.94498
  Beta  occ. eigenvalues --   -0.93610  -0.92672  -0.92009  -0.91547  -0.91455
  Beta  occ. eigenvalues --   -0.91419  -0.91388  -0.91209  -0.91183  -0.90921
  Beta  occ. eigenvalues --   -0.90878  -0.90807  -0.90681  -0.90552  -0.90466
  Beta  occ. eigenvalues --   -0.90419  -0.90354  -0.90184  -0.89481  -0.88737
  Beta  occ. eigenvalues --   -0.88159  -0.87701  -0.87539  -0.85932  -0.85804
  Beta  occ. eigenvalues --   -0.85742  -0.85399  -0.85176  -0.85117  -0.85098
  Beta  occ. eigenvalues --   -0.85084  -0.85060  -0.84958  -0.84572  -0.84105
  Beta  occ. eigenvalues --   -0.83396  -0.82879  -0.80244  -0.79424  -0.78360
  Beta  occ. eigenvalues --   -0.77246  -0.76241  -0.75672  -0.75603  -0.75458
  Beta  occ. eigenvalues --   -0.75290  -0.75180  -0.75079  -0.74745  -0.74413
  Beta  occ. eigenvalues --   -0.74210  -0.74078  -0.74002  -0.73318  -0.72936
  Beta  occ. eigenvalues --   -0.72815  -0.72666  -0.72626  -0.72276  -0.72216
  Beta  occ. eigenvalues --   -0.71939  -0.71695  -0.71556  -0.71326  -0.71214
  Beta  occ. eigenvalues --   -0.68753  -0.68666  -0.68539  -0.68343  -0.68095
  Beta  occ. eigenvalues --   -0.67771  -0.67236  -0.67158  -0.65816  -0.65216
  Beta  occ. eigenvalues --   -0.64738  -0.64705  -0.64071  -0.63982  -0.63748
  Beta  occ. eigenvalues --   -0.63654  -0.63378  -0.63201  -0.62990  -0.62798
  Beta  occ. eigenvalues --   -0.62579  -0.62363  -0.62174  -0.62016  -0.61988
  Beta  occ. eigenvalues --   -0.61888  -0.61817  -0.61726  -0.61616  -0.61492
  Beta  occ. eigenvalues --   -0.61408  -0.61380  -0.61335  -0.61281  -0.61264
  Beta  occ. eigenvalues --   -0.60993  -0.60885  -0.60856  -0.60848  -0.60834
  Beta  occ. eigenvalues --   -0.60802  -0.60786  -0.60703  -0.60641  -0.60533
  Beta  occ. eigenvalues --   -0.60518  -0.60493  -0.60391  -0.60074  -0.59886
  Beta  occ. eigenvalues --   -0.59789  -0.59432  -0.58987  -0.58399  -0.57906
  Beta  occ. eigenvalues --   -0.57806  -0.57491  -0.57092  -0.56877  -0.56799
  Beta  occ. eigenvalues --   -0.56721  -0.56690  -0.56664  -0.56639  -0.56618
  Beta  occ. eigenvalues --   -0.56514  -0.56262  -0.56147  -0.55891  -0.55792
  Beta  occ. eigenvalues --   -0.54972  -0.54794  -0.54584  -0.54522  -0.54455
  Beta  occ. eigenvalues --   -0.54365  -0.54287  -0.54259  -0.53801  -0.53701
  Beta  occ. eigenvalues --   -0.53677  -0.53518  -0.53303  -0.53278  -0.53211
  Beta  occ. eigenvalues --   -0.52972  -0.52466  -0.52404  -0.52230  -0.52133
  Beta  occ. eigenvalues --   -0.51997  -0.51884  -0.51718  -0.51537  -0.51449
  Beta  occ. eigenvalues --   -0.51127  -0.51038  -0.50953  -0.50741  -0.50576
  Beta  occ. eigenvalues --   -0.50435  -0.50211  -0.50099  -0.49890  -0.49567
  Beta  occ. eigenvalues --   -0.49223  -0.48846  -0.48746  -0.48693  -0.48613
  Beta  occ. eigenvalues --   -0.48525  -0.48486  -0.48402  -0.48318  -0.48136
  Beta  occ. eigenvalues --   -0.47986  -0.47869  -0.47688  -0.47577  -0.47351
  Beta  occ. eigenvalues --   -0.47348  -0.46830  -0.46701  -0.46686  -0.46543
  Beta  occ. eigenvalues --   -0.46495  -0.46423  -0.46069  -0.45918  -0.45727
  Beta  occ. eigenvalues --   -0.45638  -0.45524  -0.45356  -0.45296  -0.45127
  Beta  occ. eigenvalues --   -0.45109  -0.44979  -0.44927  -0.44693  -0.44500
  Beta  occ. eigenvalues --   -0.44465  -0.44455  -0.44045  -0.43820  -0.43748
  Beta  occ. eigenvalues --   -0.43690  -0.43627  -0.43534  -0.43389  -0.43379
  Beta  occ. eigenvalues --   -0.43169  -0.42819  -0.42649  -0.42461  -0.42258
  Beta  occ. eigenvalues --   -0.38855  -0.38504  -0.38098  -0.37632  -0.36967
  Beta  occ. eigenvalues --   -0.36210  -0.35484  -0.35221  -0.34535  -0.34226
  Beta  occ. eigenvalues --   -0.34074  -0.34017  -0.33875  -0.33775  -0.32749
  Beta  occ. eigenvalues --   -0.32688  -0.32609  -0.32572  -0.32537  -0.32414
  Beta  occ. eigenvalues --   -0.32269  -0.31827  -0.31426  -0.30830  -0.30174
  Beta  occ. eigenvalues --   -0.29685  -0.29222  -0.28810
  Beta virt. eigenvalues --    0.03590   0.04071   0.04660   0.05361   0.06302
  Beta virt. eigenvalues --    0.07323   0.08716   0.08933   0.09272   0.09613
  Beta virt. eigenvalues --    0.09759   0.09822   0.09867   0.09920   0.09929

 Mulliken charges and spin densities:
               1          2
     1  C    0.001416   0.000000
     2  C   -0.066574   0.000000
     3  C    0.108519  -0.000000
     4  O   -0.252421  -0.000000
     5  C    0.038059   0.000000
     6  C   -0.049220   0.000000
     7  C    0.044063  -0.000000
     8  C   -0.008886  -0.000000
     9  C   -0.041116   0.000000
    10  C    0.059155  -0.000000
    11  C   -0.015492   0.000000
    12  C   -0.012188  -0.000000
    13  C   -0.056235  -0.000000
    14  C    0.120347   0.000000
    15  O   -0.253296   0.000000
    16  C    0.041053  -0.000000
    17  C   -0.009631   0.000000
    18  C   -0.057278  -0.000000
    19  C    0.143861   0.000000
    20  O   -0.249454  -0.000000
    21  C    0.041252  -0.000000
    22  C   -0.044830  -0.000000
    23  C    0.032868   0.000000
    24  C   -0.014457  -0.000000
    25  C   -0.044675  -0.000000
    26  C    0.032974   0.000000
    27  C   -0.014512  -0.000000
    28  C   -0.009529   0.000000
    29  C   -0.057665   0.000000
    30  C    0.143999  -0.000000
    31  O   -0.249403   0.000000
    32  C    0.041285  -0.000000
    33  C   -0.010531   0.000000
    34  C   -0.055997  -0.000000
    35  C    0.117144   0.000000
    36  O   -0.254278   0.000000
    37  C    0.041415  -0.000000
    38  C   -0.039513  -0.000000
    39  C    0.056346   0.000000
    40  C   -0.015250  -0.000000
    41  C   -0.039298  -0.000000
    42  C    0.056436   0.000000
    43  C   -0.018729  -0.000000
    44  C   -0.008664  -0.000000
    45  C   -0.054960   0.000000
    46  C    0.117779   0.000000
    47  O   -0.253958  -0.000000
    48  C    0.040288   0.000000
    49  C   -0.008745  -0.000000
    50  C   -0.055034   0.000000
    51  C    0.117375  -0.000000
    52  O   -0.254464   0.000000
    53  C    0.040644  -0.000000
    54  C   -0.039425  -0.000000
    55  C    0.056696   0.000000
    56  C   -0.018520   0.000000
    57  C   -0.039580   0.000000
    58  C    0.056606  -0.000000
    59  C   -0.018103  -0.000000
    60  C   -0.008940   0.000000
    61  C   -0.054820  -0.000000
    62  C    0.117334   0.000000
    63  O   -0.254462   0.000000
    64  C    0.040494  -0.000000
    65  C   -0.010380   0.000000
    66  C   -0.054557   0.000000
    67  C    0.119630  -0.000000
    68  O   -0.254624   0.000000
    69  C    0.040480  -0.000000
    70  C   -0.041981   0.000000
    71  C    0.057376  -0.000000
    72  C   -0.018482   0.000000
    73  C   -0.040290   0.000000
    74  C    0.056199  -0.000000
    75  C   -0.018111   0.000000
    76  C   -0.009210  -0.000000
    77  C   -0.054662  -0.000000
    78  C    0.117818   0.000000
    79  O   -0.253914   0.000000
    80  C    0.040207   0.000000
    81  C   -0.010526   0.000000
    82  C   -0.054426   0.000000
    83  C    0.119925  -0.000000
    84  O   -0.254122  -0.000000
    85  C    0.040291  -0.000000
    86  C   -0.041902  -0.000000
    87  C    0.057200  -0.000000
    88  C   -0.018428  -0.000000
    89  C   -0.040331   0.000000
    90  C    0.055928   0.000000
    91  C   -0.015331  -0.000000
    92  C   -0.009582   0.000000
    93  C   -0.056397  -0.000000
    94  C    0.117668   0.000000
    95  O   -0.253719  -0.000000
    96  C    0.041059   0.000000
    97  C   -0.011145   0.000000
    98  C   -0.056981   0.000000
    99  C    0.120431  -0.000000
   100  O   -0.253346   0.000000
   101  C    0.041043  -0.000000
   102  C   -0.041117   0.000000
   103  C    0.059096   0.000000
   104  C   -0.015401  -0.000000
   105  C   -0.049183   0.000000
   106  C    0.044016   0.000000
   107  C   -0.008874  -0.000000
   108  C    0.001403  -0.000000
   109  C   -0.066567   0.000000
   110  C    0.108510  -0.000000
   111  O   -0.252414   0.000000
   112  C    0.038090   0.000000
   113  H    0.007049  -0.000000
   114  H    0.009425   0.000000
   115  H    0.050430  -0.000000
   116  H    0.064563   0.000000
   117  H    0.049208  -0.000000
   118  H   -0.001353  -0.000000
   119  H    0.002603   0.000000
   120  H   -0.001981  -0.000000
   121  H   -0.003204   0.000000
   122  H    0.002363  -0.000000
   123  H    0.063780   0.000000
   124  H    0.047081   0.000000
   125  H    0.051806  -0.000000
   126  H    0.002740   0.000000
   127  H    0.061050   0.000000
   128  H    0.052458   0.000000
   129  H    0.045482   0.000000
   130  H   -0.001517   0.000000
   131  H   -0.001407   0.000000
   132  H   -0.001817   0.000000
   133  H   -0.001437   0.000000
   134  H    0.002092   0.000000
   135  H    0.052532  -0.000000
   136  H    0.045266   0.000000
   137  H    0.061181   0.000000
   138  H    0.002566  -0.000000
   139  H    0.062729   0.000000
   140  H    0.045542   0.000000
   141  H    0.053822   0.000000
   142  H   -0.001676  -0.000000
   143  H   -0.003186  -0.000000
   144  H   -0.003529  -0.000000
   145  H   -0.005894  -0.000000
   146  H    0.005030  -0.000000
   147  H    0.053312  -0.000000
   148  H    0.048890   0.000000
   149  H    0.063810  -0.000000
   150  H    0.004586  -0.000000
   151  H    0.053421   0.000000
   152  H    0.062425   0.000000
   153  H    0.048643  -0.000000
   154  H   -0.002426   0.000000
   155  H   -0.005316  -0.000000
   156  H   -0.002554  -0.000000
   157  H   -0.005004  -0.000000
   158  H    0.004612   0.000000
   159  H    0.053615   0.000000
   160  H    0.048971   0.000000
   161  H    0.062703  -0.000000
   162  H    0.004534   0.000000
   163  H    0.051543  -0.000000
   164  H    0.062624  -0.000000
   165  H    0.050728   0.000000
   166  H   -0.002438   0.000000
   167  H   -0.005395   0.000000
   168  H   -0.002729  -0.000000
   169  H   -0.005254  -0.000000
   170  H    0.004677   0.000000
   171  H    0.053615  -0.000000
   172  H    0.064268  -0.000000
   173  H    0.048514  -0.000000
   174  H    0.004692   0.000000
   175  H    0.063638   0.000000
   176  H    0.050356   0.000000
   177  H    0.051697  -0.000000
   178  H   -0.003313  -0.000000
   179  H   -0.005708  -0.000000
   180  H   -0.001974   0.000000
   181  H   -0.003038   0.000000
   182  H    0.002715  -0.000000
   183  H    0.064328  -0.000000
   184  H    0.053790   0.000000
   185  H    0.045462   0.000000
   186  H    0.001752   0.000000
   187  H    0.047240   0.000000
   188  H    0.063929  -0.000000
   189  H    0.051837   0.000000
   190  H   -0.002224  -0.000000
   191  H   -0.002749  -0.000000
   192  H   -0.001329   0.000000
   193  H    0.002622  -0.000000
   194  H    0.007029  -0.000000
   195  H    0.009371  -0.000000
   196  H    0.050496   0.000000
   197  H    0.064492  -0.000000
   198  H    0.049071   0.000000
 Sum of Mulliken charges =  -0.00000  -0.00000

 Dipole moment (field-independent basis, Debye):
    X=             -0.1414    Y=              2.9766    Z=              4.7370  Tot=              5.5964
 Quadrupole moment (field-independent basis, Debye-Ang):
   XX=           -565.4770   YY=           -547.6753   ZZ=           -621.5101
   XY=            -57.4848   XZ=            -10.3419   YZ=             -0.8837

 Normal termination of Gaussian 16 at Tue Jul 28 03:50:00 2020.
