 Gaussian 16, Revision A.03,
 Gaussian 16:  EM64L-G16RevA.03 25-Dec-2016

 ---------------------------------------------------------------
 #P uLC-wPBE/cc-pVDZ iop(3/107=0223500000, 3/108=0223500000) opt
 ---------------------------------------------------------------

 ------------------
 H8 C10 S1 N1 O1 F1
 ------------------
 Symbolic Z-matrix:
 Charge =  0 Multiplicity = 1

 SCF Done:  E(ULC-wPBE) =  -1013.21813535     A.U. after   16 cycles
 SCF Done:  E(ULC-wPBE) =  -1013.25017873     A.U. after   14 cycles
 SCF Done:  E(ULC-wPBE) =  -1013.25811199     A.U. after   14 cycles
 SCF Done:  E(ULC-wPBE) =  -1013.25858452     A.U. after   13 cycles
 SCF Done:  E(ULC-wPBE) =  -1013.25876396     A.U. after   13 cycles
 SCF Done:  E(ULC-wPBE) =  -1013.25892152     A.U. after   14 cycles
 SCF Done:  E(ULC-wPBE) =  -1013.25903310     A.U. after   13 cycles
 SCF Done:  E(ULC-wPBE) =  -1013.25920921     A.U. after   14 cycles
 SCF Done:  E(ULC-wPBE) =  -1013.25939385     A.U. after   13 cycles
 SCF Done:  E(ULC-wPBE) =  -1013.25969317     A.U. after   14 cycles
 SCF Done:  E(ULC-wPBE) =  -1013.25972215     A.U. after   13 cycles
 SCF Done:  E(ULC-wPBE) =  -1013.25976493     A.U. after   13 cycles
 SCF Done:  E(ULC-wPBE) =  -1013.25978097     A.U. after   11 cycles
 SCF Done:  E(ULC-wPBE) =  -1013.25979260     A.U. after   12 cycles
 SCF Done:  E(ULC-wPBE) =  -1013.25979621     A.U. after   11 cycles
 SCF Done:  E(ULC-wPBE) =  -1013.25979807     A.U. after    9 cycles
 SCF Done:  E(ULC-wPBE) =  -1013.25979819     A.U. after    9 cycles
 Optimization completed.
    -- Stationary point found.

                         Standard orientation:
 ---------------------------------------------------------------------
 Center     Atomic      Atomic             Coordinates (Angstroms)
 Number     Number       Type             X           Y           Z
 ---------------------------------------------------------------------
      1          6           0       -3.238170   -0.676250   -0.038804
      2          6           0       -2.438001   -1.812449   -0.103604
      3          6           0       -1.051572   -1.662736   -0.074431
      4          9           0       -0.317725   -2.782900   -0.163838
      5          6           0       -0.415069   -0.411379    0.022863
      6          6           0       -1.267992    0.724502    0.068050
      7          8           0       -0.631636    1.926285    0.132222
      8          6           0       -1.414997    3.110203    0.173650
      9          6           0       -2.662227    0.594326    0.044089
     10          6           0        1.058879   -0.311017    0.081139
     11          7           0        1.833866   -1.312768    0.432285
     12          6           0        3.157265   -0.972135    0.343915
     13          6           0        3.422244    0.302651   -0.085613
     14         16           0        1.947042    1.140895   -0.374973
     15          1           0       -4.330475   -0.774460   -0.058817
     16          1           0       -2.854534   -2.822268   -0.181374
     17          1           0       -0.694878    3.943356    0.216368
     18          1           0       -2.060656    3.138310    1.074217
     19          1           0       -2.043713    3.214717   -0.733436
     20          1           0       -3.303447    1.479399    0.087759
     21          1           0        3.917068   -1.713185    0.616396
     22          1           0        4.391352    0.790696   -0.218303
 ---------------------------------------------------------------------

 The electronic state is 1-A.
 Alpha  occ. eigenvalues --  -88.22326 -24.40332 -18.94018 -14.11287 -10.11183
 Alpha  occ. eigenvalues --  -10.10149 -10.09094 -10.08688 -10.04938 -10.04679
 Alpha  occ. eigenvalues --  -10.04483 -10.04280 -10.03299 -10.02849  -7.82717
 Alpha  occ. eigenvalues --   -5.84669  -5.84203  -5.83883  -1.24470  -1.12608
 Alpha  occ. eigenvalues --   -1.00404  -0.92054  -0.84942  -0.84628  -0.81553
 Alpha  occ. eigenvalues --   -0.78455  -0.76711  -0.69666  -0.67282  -0.64566
 Alpha  occ. eigenvalues --   -0.63022  -0.60455  -0.57627  -0.56597  -0.55492
 Alpha  occ. eigenvalues --   -0.54947  -0.54024  -0.52172  -0.51182  -0.49190
 Alpha  occ. eigenvalues --   -0.48212  -0.47399  -0.46572  -0.45221  -0.44684
 Alpha  occ. eigenvalues --   -0.43172  -0.41906  -0.40003  -0.39552  -0.35802
 Alpha  occ. eigenvalues --   -0.33976  -0.32429  -0.30530  -0.28555
 Alpha virt. eigenvalues --    0.01126   0.06308   0.07707   0.10675   0.12230
 Alpha virt. eigenvalues --    0.12570   0.14076   0.15396   0.16389   0.17679
 Alpha virt. eigenvalues --    0.18899   0.19274   0.19545   0.20956   0.21730

  Beta  occ. eigenvalues --  -88.22326 -24.40332 -18.94018 -14.11287 -10.11183
  Beta  occ. eigenvalues --  -10.10149 -10.09094 -10.08688 -10.04938 -10.04679
  Beta  occ. eigenvalues --  -10.04483 -10.04280 -10.03299 -10.02849  -7.82717
  Beta  occ. eigenvalues --   -5.84669  -5.84203  -5.83883  -1.24470  -1.12608
  Beta  occ. eigenvalues --   -1.00404  -0.92054  -0.84942  -0.84628  -0.81553
  Beta  occ. eigenvalues --   -0.78455  -0.76711  -0.69666  -0.67282  -0.64566
  Beta  occ. eigenvalues --   -0.63022  -0.60455  -0.57627  -0.56597  -0.55492
  Beta  occ. eigenvalues --   -0.54947  -0.54024  -0.52172  -0.51182  -0.49190
  Beta  occ. eigenvalues --   -0.48212  -0.47399  -0.46572  -0.45221  -0.44684
  Beta  occ. eigenvalues --   -0.43172  -0.41906  -0.40003  -0.39552  -0.35802
  Beta  occ. eigenvalues --   -0.33976  -0.32429  -0.30530  -0.28555
  Beta virt. eigenvalues --    0.01126   0.06308   0.07707   0.10675   0.12230
  Beta virt. eigenvalues --    0.12570   0.14076   0.15396   0.16389   0.17679
  Beta virt. eigenvalues --    0.18899   0.19274   0.19545   0.20956   0.21730

 Mulliken charges and spin densities:
               1          2
     1  C    0.039065   0.000000
     2  C    0.009648  -0.000000
     3  C    0.104258   0.000000
     4  F   -0.098573   0.000000
     5  C   -0.024284  -0.000000
     6  C    0.111828   0.000000
     7  O   -0.251779  -0.000000
     8  C    0.063310   0.000000
     9  C   -0.029755  -0.000000
    10  C   -0.017244  -0.000000
    11  N   -0.168593   0.000000
    12  C    0.115162   0.000000
    13  C   -0.171509   0.000000
    14  S    0.158192  -0.000000
    15  H   -0.007077   0.000000
    16  H   -0.003426   0.000000
    17  H    0.057206  -0.000000
    18  H    0.050649   0.000000
    19  H    0.049876   0.000000
    20  H   -0.011542   0.000000
    21  H    0.000283  -0.000000
    22  H    0.024303  -0.000000
 Sum of Mulliken charges =  -0.00000  -0.00000

 Dipole moment (field-independent basis, Debye):
    X=             -1.7519    Y=              3.2808    Z=             -0.2481  Tot=              3.7275
 Quadrupole moment (field-independent basis, Debye-Ang):
   XX=            -70.8556   YY=            -79.9347   ZZ=            -89.5774
   XY=             -1.0434   XZ=             -0.3928   YZ=              0.6466

 Normal termination of Gaussian 16 at Sat Jul 25 01:43:16 2020.
