 Gaussian 16, Revision A.03,
 Gaussian 16:  EM64L-G16RevA.03 25-Dec-2016

 ---------------------------------------------------------------
 #P uLC-wPBE/cc-pVDZ iop(3/107=0141700000, 3/108=0141700000) opt
 ---------------------------------------------------------------

 -----------
 H6 C8 S1 N2
 -----------
 Symbolic Z-matrix:
 Charge =  0 Multiplicity = 1

 SCF Done:  E(ULC-wPBE) =  -815.597174662     A.U. after   15 cycles
 SCF Done:  E(ULC-wPBE) =  -815.628283114     A.U. after   14 cycles
 SCF Done:  E(ULC-wPBE) =  -815.633571343     A.U. after   14 cycles
 SCF Done:  E(ULC-wPBE) =  -815.633949583     A.U. after   13 cycles
 SCF Done:  E(ULC-wPBE) =  -815.634310908     A.U. after   13 cycles
 SCF Done:  E(ULC-wPBE) =  -815.634332786     A.U. after   13 cycles
 SCF Done:  E(ULC-wPBE) =  -815.634357559     A.U. after   13 cycles
 SCF Done:  E(ULC-wPBE) =  -815.634365503     A.U. after   12 cycles
 SCF Done:  E(ULC-wPBE) =  -815.634366553     A.U. after   10 cycles
 SCF Done:  E(ULC-wPBE) =  -815.634366987     A.U. after    8 cycles
 Optimization completed.
    -- Stationary point found.

                         Standard orientation:
 ---------------------------------------------------------------------
 Center     Atomic      Atomic             Coordinates (Angstroms)
 Number     Number       Type             X           Y           Z
 ---------------------------------------------------------------------
      1          6           0       -3.409081   -0.088430   -0.000101
      2          6           0       -2.577795   -1.214557   -0.000007
      3          7           0       -1.240060   -1.127575    0.000334
      4          6           0       -0.727327    0.125706    0.000206
      5          7           0       -1.429304    1.283345   -0.000134
      6          6           0       -2.763618    1.154490   -0.000235
      7          6           0        0.733465    0.238010    0.000112
      8          6           0        1.505839    1.388307    0.000253
      9          6           0        2.902025    1.113515    0.000087
     10          6           0        3.170432   -0.242117   -0.000188
     11         16           0        1.727657   -1.197391   -0.000137
     12          1           0       -4.503158   -0.174239   -0.000145
     13          1           0       -2.998094   -2.234219    0.000470
     14          1           0       -3.341066    2.094293   -0.000371
     15          1           0        1.050304    2.384874    0.000431
     16          1           0        3.683115    1.883411   -0.000013
     17          1           0        4.148301   -0.735794   -0.000345
 ---------------------------------------------------------------------

 The electronic state is 1-A.
 Alpha  occ. eigenvalues --  -88.17928 -14.08730 -14.08674 -10.05718 -10.03330
 Alpha  occ. eigenvalues --  -10.03319 -10.00770 -10.00679  -9.99979  -9.98553
 Alpha  occ. eigenvalues --   -9.98496  -7.78186  -5.80235  -5.79782  -5.79451
 Alpha  occ. eigenvalues --   -0.98682  -0.89408  -0.88571  -0.81096  -0.74860
 Alpha  occ. eigenvalues --   -0.74151  -0.67672  -0.67090  -0.58914  -0.57980
 Alpha  occ. eigenvalues --   -0.54627  -0.53722  -0.51870  -0.47548  -0.47207
 Alpha  occ. eigenvalues --   -0.44708  -0.43198  -0.42043  -0.41683  -0.41211
 Alpha  occ. eigenvalues --   -0.37963  -0.36240  -0.34593  -0.33819  -0.29591
 Alpha  occ. eigenvalues --   -0.28374  -0.26988
 Alpha virt. eigenvalues --   -0.02090  -0.00607   0.05216   0.08203   0.10080
 Alpha virt. eigenvalues --    0.11071   0.12579   0.13815   0.15449   0.16894
 Alpha virt. eigenvalues --    0.17145   0.18073   0.18412   0.25144   0.27035

  Beta  occ. eigenvalues --  -88.17928 -14.08730 -14.08674 -10.05718 -10.03330
  Beta  occ. eigenvalues --  -10.03319 -10.00770 -10.00679  -9.99979  -9.98553
  Beta  occ. eigenvalues --   -9.98496  -7.78186  -5.80235  -5.79782  -5.79451
  Beta  occ. eigenvalues --   -0.98682  -0.89408  -0.88571  -0.81096  -0.74860
  Beta  occ. eigenvalues --   -0.74151  -0.67672  -0.67090  -0.58914  -0.57980
  Beta  occ. eigenvalues --   -0.54627  -0.53722  -0.51870  -0.47548  -0.47207
  Beta  occ. eigenvalues --   -0.44708  -0.43198  -0.42043  -0.41683  -0.41211
  Beta  occ. eigenvalues --   -0.37963  -0.36240  -0.34593  -0.33819  -0.29591
  Beta  occ. eigenvalues --   -0.28374  -0.26988
  Beta virt. eigenvalues --   -0.02090  -0.00607   0.05216   0.08203   0.10080
  Beta virt. eigenvalues --    0.11071   0.12579   0.13815   0.15449   0.16894
  Beta virt. eigenvalues --    0.17145   0.18073   0.18412   0.25144   0.27035

 Mulliken charges and spin densities:
               1          2
     1  C   -0.058108   0.000000
     2  C    0.117819  -0.000000
     3  N   -0.202011  -0.000000
     4  C    0.193450   0.000000
     5  N   -0.188427   0.000000
     6  C    0.116228  -0.000000
     7  C   -0.159052  -0.000000
     8  C    0.048019   0.000000
     9  C    0.071982  -0.000000
    10  C   -0.125349   0.000000
    11  S    0.183834   0.000000
    12  H   -0.006265   0.000000
    13  H    0.009292  -0.000000
    14  H    0.007106   0.000000
    15  H   -0.014979  -0.000000
    16  H   -0.013177  -0.000000
    17  H    0.019639  -0.000000
 Sum of Mulliken charges =  -0.00000  -0.00000

 Dipole moment (field-independent basis, Debye):
    X=             -1.2078    Y=              0.2223    Z=             -0.0002  Tot=              1.2281
 Quadrupole moment (field-independent basis, Debye-Ang):
   XX=            -51.5640   YY=            -67.9957   ZZ=            -72.7847
   XY=              1.0118   XZ=             -0.0009   YZ=              0.0008

 Normal termination of Gaussian 16 at Sat Jul 25 15:10:37 2020.
