 Gaussian 16, Revision A.03,
 Gaussian 16:  EM64L-G16RevA.03 25-Dec-2016

 ---------------------------------------------------------------
 #P uLC-wPBE/cc-pVDZ iop(3/107=0092800000, 3/108=0092800000) opt
 ---------------------------------------------------------------

 ----------
 H20 C30 N6
 ----------
 Symbolic Z-matrix:
 Charge =  0 Multiplicity = 1

 SCF Done:  E(ULC-wPBE) =  -1482.24395837     A.U. after   15 cycles
 SCF Done:  E(ULC-wPBE) =  -1482.30108680     A.U. after   13 cycles
 SCF Done:  E(ULC-wPBE) =  -1482.33712523     A.U. after   14 cycles
 SCF Done:  E(ULC-wPBE) =  -1482.33951826     A.U. after   13 cycles
 SCF Done:  E(ULC-wPBE) =  -1482.34050917     A.U. after   13 cycles
 SCF Done:  E(ULC-wPBE) =  -1482.34070872     A.U. after   12 cycles
 SCF Done:  E(ULC-wPBE) =  -1482.34074810     A.U. after   11 cycles
 SCF Done:  E(ULC-wPBE) =  -1482.34075630     A.U. after   11 cycles
 SCF Done:  E(ULC-wPBE) =  -1482.34075885     A.U. after   10 cycles
 SCF Done:  E(ULC-wPBE) =  -1482.34075985     A.U. after    8 cycles
 SCF Done:  E(ULC-wPBE) =  -1482.34075995     A.U. after    6 cycles
 Optimization completed.
    -- Stationary point found.

                         Standard orientation:
 ---------------------------------------------------------------------
 Center     Atomic      Atomic             Coordinates (Angstroms)
 Number     Number       Type             X           Y           Z
 ---------------------------------------------------------------------
      1          6           0       12.005255    0.152423    0.030281
      2          6           0       11.284459    1.327442   -0.227005
      3          6           0        9.887536    1.271468   -0.244531
      4          6           0        9.256558    0.034253   -0.002049
      5          7           0        9.943541   -1.104767    0.246920
      6          6           0       11.284242   -1.029923    0.259009
      7          6           0        7.768846   -0.072472   -0.010568
      8          7           0        7.074464    1.062628   -0.254661
      9          6           0        5.737397    0.989858   -0.259183
     10          6           0        4.994590   -0.189851   -0.018674
     11          6           0        5.740494   -1.363224    0.224591
     12          6           0        7.134229   -1.308635    0.226349
     13          6           0        3.515976   -0.184892   -0.032070
     14          6           0        2.764917   -1.262104   -0.549700
     15          6           0        1.371409   -1.202626   -0.537643
     16          6           0        0.742464   -0.056659   -0.009930
     17          7           0        1.441707    0.984041    0.499058
     18          6           0        2.778282    0.906179    0.484992
     19          6           0       -0.742418    0.056782    0.009792
     20          7           0       -1.441648   -0.983944   -0.499161
     21          6           0       -2.778216   -0.906139   -0.485062
     22          6           0       -3.515949    0.184889    0.032061
     23          6           0       -2.764894    1.262089    0.549721
     24          6           0       -1.371392    1.202697    0.537560
     25          6           0       -4.994569    0.189817    0.018771
     26          6           0       -5.740510    1.363291   -0.223942
     27          6           0       -7.134243    1.308720   -0.225621
     28          6           0       -7.768840    0.072458    0.010762
     29          7           0       -7.074468   -1.062786    0.254147
     30          6           0       -5.737389   -0.990013    0.258686
     31          6           0       -9.256601   -0.034266    0.002108
     32          7           0       -9.943619    1.105281   -0.244317
     33          6           0      -11.284317    1.030460   -0.256451
     34          6           0      -12.005287   -0.152407   -0.030266
     35          6           0      -11.284466   -1.327977    0.224345
     36          6           0       -9.887531   -1.272022    0.241889
     37          1           0       13.104056    0.147131    0.054186
     38          1           0       11.806647    2.277555   -0.412342
     39          1           0        9.261142    2.151328   -0.439800
     40          1           0       11.816030   -1.974255    0.464620
     41          1           0        5.207791    1.929095   -0.492526
     42          1           0        5.223873   -2.311477    0.435403
     43          1           0        7.758275   -2.190861    0.418011
     44          1           0        3.277473   -2.134155   -0.982406
     45          1           0        0.744432   -2.010476   -0.936076
     46          1           0        3.312186    1.759566    0.936251
     47          1           0       -3.312026   -1.759579   -0.936347
     48          1           0       -3.277449    2.134088    0.982522
     49          1           0       -0.744368    2.010543    0.935945
     50          1           0       -5.223930    2.311636   -0.434415
     51          1           0       -7.758317    2.191041   -0.416670
     52          1           0       -5.207846   -1.929423    0.491527
     53          1           0      -11.816130    1.975262   -0.459945
     54          1           0      -13.104099   -0.147095   -0.054034
     55          1           0      -11.806626   -2.278500    0.407629
     56          1           0       -9.261151   -2.152317    0.435226
 ---------------------------------------------------------------------

 The electronic state is 1-A.
 Alpha  occ. eigenvalues --  -14.05656 -14.05655 -14.05553 -14.05553 -14.05286
 Alpha  occ. eigenvalues --  -14.05286  -9.99630  -9.99619  -9.99501  -9.99501
 Alpha  occ. eigenvalues --   -9.99388  -9.99388  -9.99312  -9.99312  -9.99247
 Alpha  occ. eigenvalues --   -9.99247  -9.98948  -9.98948  -9.98071  -9.98070
 Alpha  occ. eigenvalues --   -9.98006  -9.98006  -9.97780  -9.97780  -9.97717
 Alpha  occ. eigenvalues --   -9.97717  -9.97510  -9.97510  -9.96769  -9.96769
 Alpha  occ. eigenvalues --   -9.96561  -9.96561  -9.96439  -9.96439  -9.96253
 Alpha  occ. eigenvalues --   -9.96253  -0.92895  -0.92613  -0.92556  -0.91226
 Alpha  occ. eigenvalues --   -0.90861  -0.90800  -0.81728  -0.81523  -0.78505
 Alpha  occ. eigenvalues --   -0.78496  -0.77728  -0.77538  -0.77376  -0.77143
 Alpha  occ. eigenvalues --   -0.76506  -0.74325  -0.72592  -0.70908  -0.66587
 Alpha  occ. eigenvalues --   -0.65021  -0.64481  -0.64167  -0.63113  -0.62418
 Alpha  occ. eigenvalues --   -0.61782  -0.60634  -0.60353  -0.59853  -0.58979
 Alpha  occ. eigenvalues --   -0.58231  -0.54132  -0.53589  -0.52941  -0.51578
 Alpha  occ. eigenvalues --   -0.51186  -0.50514  -0.49872  -0.49372  -0.48243
 Alpha  occ. eigenvalues --   -0.48228  -0.47588  -0.46713  -0.46253  -0.45456
 Alpha  occ. eigenvalues --   -0.44987  -0.44740  -0.44303  -0.44174  -0.43423
 Alpha  occ. eigenvalues --   -0.43114  -0.42989  -0.42933  -0.42343  -0.42013
 Alpha  occ. eigenvalues --   -0.41894  -0.40983  -0.40584  -0.40327  -0.40085
 Alpha  occ. eigenvalues --   -0.39784  -0.39749  -0.39051  -0.38662  -0.38340
 Alpha  occ. eigenvalues --   -0.37266  -0.36712  -0.36654  -0.34666  -0.33389
 Alpha  occ. eigenvalues --   -0.31668  -0.31657  -0.31325  -0.31010  -0.30694
 Alpha  occ. eigenvalues --   -0.30465  -0.30296  -0.28255  -0.27910  -0.27663
 Alpha  occ. eigenvalues --   -0.27642  -0.26531  -0.26272  -0.26150  -0.26042
 Alpha  occ. eigenvalues --   -0.24654
 Alpha virt. eigenvalues --   -0.06042  -0.04227  -0.02403  -0.02135  -0.01838
 Alpha virt. eigenvalues --   -0.01725  -0.00569  -0.00218   0.00035   0.01713
 Alpha virt. eigenvalues --    0.03740   0.05508   0.09009   0.09010   0.09338

  Beta  occ. eigenvalues --  -14.05656 -14.05655 -14.05553 -14.05553 -14.05286
  Beta  occ. eigenvalues --  -14.05286  -9.99630  -9.99619  -9.99501  -9.99501
  Beta  occ. eigenvalues --   -9.99388  -9.99388  -9.99312  -9.99312  -9.99247
  Beta  occ. eigenvalues --   -9.99247  -9.98948  -9.98948  -9.98071  -9.98070
  Beta  occ. eigenvalues --   -9.98006  -9.98006  -9.97780  -9.97780  -9.97717
  Beta  occ. eigenvalues --   -9.97717  -9.97510  -9.97510  -9.96769  -9.96769
  Beta  occ. eigenvalues --   -9.96561  -9.96561  -9.96439  -9.96439  -9.96253
  Beta  occ. eigenvalues --   -9.96253  -0.92895  -0.92613  -0.92556  -0.91226
  Beta  occ. eigenvalues --   -0.90861  -0.90800  -0.81728  -0.81523  -0.78505
  Beta  occ. eigenvalues --   -0.78496  -0.77728  -0.77538  -0.77376  -0.77143
  Beta  occ. eigenvalues --   -0.76506  -0.74325  -0.72592  -0.70908  -0.66587
  Beta  occ. eigenvalues --   -0.65021  -0.64481  -0.64167  -0.63113  -0.62418
  Beta  occ. eigenvalues --   -0.61782  -0.60634  -0.60353  -0.59853  -0.58979
  Beta  occ. eigenvalues --   -0.58231  -0.54132  -0.53589  -0.52941  -0.51578
  Beta  occ. eigenvalues --   -0.51186  -0.50514  -0.49872  -0.49372  -0.48243
  Beta  occ. eigenvalues --   -0.48228  -0.47588  -0.46713  -0.46253  -0.45456
  Beta  occ. eigenvalues --   -0.44987  -0.44740  -0.44303  -0.44174  -0.43423
  Beta  occ. eigenvalues --   -0.43114  -0.42989  -0.42933  -0.42343  -0.42013
  Beta  occ. eigenvalues --   -0.41894  -0.40983  -0.40584  -0.40327  -0.40085
  Beta  occ. eigenvalues --   -0.39784  -0.39749  -0.39051  -0.38662  -0.38340
  Beta  occ. eigenvalues --   -0.37266  -0.36712  -0.36654  -0.34666  -0.33389
  Beta  occ. eigenvalues --   -0.31668  -0.31657  -0.31325  -0.31010  -0.30694
  Beta  occ. eigenvalues --   -0.30465  -0.30296  -0.28255  -0.27910  -0.27663
  Beta  occ. eigenvalues --   -0.27642  -0.26531  -0.26272  -0.26150  -0.26042
  Beta  occ. eigenvalues --   -0.24654
  Beta virt. eigenvalues --   -0.06042  -0.04227  -0.02403  -0.02135  -0.01838
  Beta virt. eigenvalues --   -0.01725  -0.00569  -0.00218   0.00035   0.01713
  Beta virt. eigenvalues --    0.03740   0.05508   0.09009   0.09010   0.09338

 Mulliken charges and spin densities:
               1          2
     1  C   -0.020841   0.000000
     2  C    0.077472   0.000000
     3  C    0.044850  -0.000000
     4  C    0.056397   0.000000
     5  N   -0.200440   0.000000
     6  C    0.088821   0.000000
     7  C    0.061566   0.000000
     8  N   -0.198210   0.000000
     9  C    0.086243  -0.000000
    10  C   -0.036561  -0.000000
    11  C    0.067841   0.000000
    12  C    0.057684  -0.000000
    13  C   -0.035761   0.000000
    14  C    0.067202  -0.000000
    15  C    0.058067   0.000000
    16  C    0.060210  -0.000000
    17  N   -0.199118   0.000000
    18  C    0.086901  -0.000000
    19  C    0.060204  -0.000000
    20  N   -0.199117  -0.000000
    21  C    0.086870   0.000000
    22  C   -0.035730  -0.000000
    23  C    0.067206  -0.000000
    24  C    0.058065   0.000000
    25  C   -0.036512  -0.000000
    26  C    0.067825   0.000000
    27  C    0.057709  -0.000000
    28  C    0.061546   0.000000
    29  N   -0.198212   0.000000
    30  C    0.086202   0.000000
    31  C    0.056401   0.000000
    32  N   -0.200436  -0.000000
    33  C    0.088808  -0.000000
    34  C   -0.020842   0.000000
    35  C    0.077471  -0.000000
    36  C    0.044848   0.000000
    37  H   -0.013674   0.000000
    38  H   -0.008995   0.000000
    39  H   -0.015348  -0.000000
    40  H   -0.002835  -0.000000
    41  H   -0.005126  -0.000000
    42  H   -0.019490  -0.000000
    43  H   -0.016894  -0.000000
    44  H   -0.019051   0.000000
    45  H   -0.016134  -0.000000
    46  H   -0.004778   0.000000
    47  H   -0.004777   0.000000
    48  H   -0.019047   0.000000
    49  H   -0.016134   0.000000
    50  H   -0.019488   0.000000
    51  H   -0.016904  -0.000000
    52  H   -0.005119  -0.000000
    53  H   -0.002824   0.000000
    54  H   -0.013672   0.000000
    55  H   -0.008996   0.000000
    56  H   -0.015347   0.000000
 Sum of Mulliken charges =  -0.00000   0.00000

 Dipole moment (field-independent basis, Debye):
    X=              0.0000    Y=             -0.0007    Z=             -0.0026  Tot=              0.0027
 Quadrupole moment (field-independent basis, Debye-Ang):
   XX=           -145.9951   YY=           -194.0336   ZZ=           -210.5460
   XY=              4.0158   XZ=             -1.4804   YZ=             -0.0378

 Normal termination of Gaussian 16 at Fri Jul 24 22:00:56 2020.
