 Gaussian 16, Revision A.03,
 Gaussian 16:  EM64L-G16RevA.03 25-Dec-2016

 ---------------------------------------------------------------
 #P uLC-wPBE/cc-pVDZ iop(3/107=0256200000, 3/108=0256200000) opt
 ---------------------------------------------------------------

 ------------
 H6 C10 S1 F2
 ------------
 Symbolic Z-matrix:
 Charge =  0 Multiplicity = 1

 SCF Done:  E(ULC-wPBE) =  -981.952841039     A.U. after   16 cycles
 SCF Done:  E(ULC-wPBE) =  -981.974877764     A.U. after   14 cycles
 SCF Done:  E(ULC-wPBE) =  -981.977036231     A.U. after   14 cycles
 SCF Done:  E(ULC-wPBE) =  -981.977275134     A.U. after   13 cycles
 SCF Done:  E(ULC-wPBE) =  -981.977571521     A.U. after   12 cycles
 SCF Done:  E(ULC-wPBE) =  -981.977577462     A.U. after   10 cycles
 SCF Done:  E(ULC-wPBE) =  -981.977578455     A.U. after   10 cycles
 SCF Done:  E(ULC-wPBE) =  -981.977579145     A.U. after    8 cycles
 SCF Done:  E(ULC-wPBE) =  -981.977579582     A.U. after    9 cycles
 SCF Done:  E(ULC-wPBE) =  -981.977583298     A.U. after   13 cycles
 SCF Done:  E(ULC-wPBE) =  -981.977601233     A.U. after    9 cycles
 SCF Done:  E(ULC-wPBE) =  -981.977599982     A.U. after   12 cycles
 SCF Done:  E(ULC-wPBE) =  -981.977315304     A.U. after   14 cycles
 SCF Done:  E(ULC-wPBE) =  -981.977610922     A.U. after   13 cycles
 SCF Done:  E(ULC-wPBE) =  -981.974871638     A.U. after   16 cycles
 SCF Done:  E(ULC-wPBE) =  -981.977567326     A.U. after   12 cycles
 SCF Done:  E(ULC-wPBE) =  -981.977624860     A.U. after    8 cycles
 SCF Done:  E(ULC-wPBE) =  -981.977633073     A.U. after   10 cycles
 SCF Done:  E(ULC-wPBE) =  -981.977637040     A.U. after    9 cycles
 SCF Done:  E(ULC-wPBE) =  -981.977637754     A.U. after    9 cycles
 Optimization completed.
    -- Stationary point found.

                         Standard orientation:
 ---------------------------------------------------------------------
 Center     Atomic      Atomic             Coordinates (Angstroms)
 Number     Number       Type             X           Y           Z
 ---------------------------------------------------------------------
      1          6           0        3.547796    0.326843    0.059662
      2          6           0        2.770819    1.473737    0.235505
      3          6           0        1.379566    1.392395    0.224914
      4          6           0        0.712864    0.165365    0.035811
      5          6           0        1.532368   -0.961133   -0.131616
      6          9           0        0.954371   -2.175229   -0.304773
      7          6           0        2.920015   -0.904050   -0.123553
      8          6           0       -0.758725    0.082352    0.013428
      9          6           0       -1.668535    1.110814   -0.127289
     10          9           0       -1.314341    2.400262   -0.313437
     11          6           0       -3.037382    0.740288   -0.068909
     12          6           0       -3.167233   -0.608318    0.124720
     13         16           0       -1.647554   -1.406058    0.219689
     14          1           0        4.642069    0.386171    0.068394
     15          1           0        3.250744    2.447282    0.386169
     16          1           0        0.785285    2.298056    0.368093
     17          1           0        3.482791   -1.833182   -0.262194
     18          1           0       -3.860154    1.451945   -0.171549
     19          1           0       -4.089464   -1.188398    0.203908
 ---------------------------------------------------------------------

 The electronic state is 1-A.
 Alpha  occ. eigenvalues --  -88.24974 -24.43669 -24.43453 -10.13028 -10.12841
 Alpha  occ. eigenvalues --  -10.08510 -10.07968 -10.07612 -10.05775 -10.05658
 Alpha  occ. eigenvalues --  -10.05568 -10.05565 -10.05123  -7.85400  -5.87342
 Alpha  occ. eigenvalues --   -5.86838  -5.86434  -1.27436  -1.27299  -0.97280
 Alpha  occ. eigenvalues --   -0.94183  -0.86311  -0.82904  -0.81929  -0.79798
 Alpha  occ. eigenvalues --   -0.71226  -0.70147  -0.66539  -0.65499  -0.62707
 Alpha  occ. eigenvalues --   -0.60526  -0.57056  -0.56065  -0.55158  -0.54184
 Alpha  occ. eigenvalues --   -0.53972  -0.52726  -0.50863  -0.50133  -0.48016
 Alpha  occ. eigenvalues --   -0.47047  -0.45536  -0.45400  -0.43960  -0.43301
 Alpha  occ. eigenvalues --   -0.41164  -0.37600  -0.33509  -0.33135  -0.29473
 Alpha virt. eigenvalues --    0.01612   0.05730   0.08055   0.10591   0.13225
 Alpha virt. eigenvalues --    0.14142   0.15184   0.16476   0.18029   0.19891
 Alpha virt. eigenvalues --    0.20716   0.21743   0.23178   0.23951   0.25417

  Beta  occ. eigenvalues --  -88.24974 -24.43669 -24.43453 -10.13028 -10.12841
  Beta  occ. eigenvalues --  -10.08510 -10.07968 -10.07612 -10.05775 -10.05658
  Beta  occ. eigenvalues --  -10.05568 -10.05565 -10.05123  -7.85400  -5.87342
  Beta  occ. eigenvalues --   -5.86838  -5.86434  -1.27436  -1.27299  -0.97280
  Beta  occ. eigenvalues --   -0.94183  -0.86311  -0.82904  -0.81929  -0.79798
  Beta  occ. eigenvalues --   -0.71226  -0.70147  -0.66539  -0.65499  -0.62707
  Beta  occ. eigenvalues --   -0.60526  -0.57056  -0.56065  -0.55158  -0.54184
  Beta  occ. eigenvalues --   -0.53972  -0.52726  -0.50863  -0.50133  -0.48016
  Beta  occ. eigenvalues --   -0.47047  -0.45536  -0.45400  -0.43960  -0.43301
  Beta  occ. eigenvalues --   -0.41164  -0.37600  -0.33509  -0.33135  -0.29473
  Beta virt. eigenvalues --    0.01612   0.05730   0.08055   0.10591   0.13225
  Beta virt. eigenvalues --    0.14142   0.15184   0.16476   0.18029   0.19891
  Beta virt. eigenvalues --    0.20716   0.21743   0.23178   0.23951   0.25417

 Mulliken charges and spin densities:
               1          2
     1  C    0.028446  -0.000000
     2  C    0.032634   0.000000
     3  C   -0.012234  -0.000000
     4  C    0.029250   0.000000
     5  C    0.075344   0.000000
     6  F   -0.129614  -0.000000
     7  C    0.022609  -0.000000
     8  C   -0.167336  -0.000000
     9  C    0.100698   0.000000
    10  F   -0.127119  -0.000000
    11  C    0.061921  -0.000000
    12  C   -0.126432   0.000000
    13  S    0.183938  -0.000000
    14  H   -0.004625   0.000000
    15  H   -0.008098  -0.000000
    16  H   -0.002886   0.000000
    17  H    0.004962   0.000000
    18  H    0.004968   0.000000
    19  H    0.033575   0.000000
 Sum of Mulliken charges =  -0.00000   0.00000

 Dipole moment (field-independent basis, Debye):
    X=             -0.0301    Y=              0.2544    Z=              0.2687  Tot=              0.3713
 Quadrupole moment (field-independent basis, Debye-Ang):
   XX=            -63.4231   YY=            -78.1006   ZZ=            -83.2338
   XY=              1.5767   XZ=             -0.1292   YZ=              0.5029

 Normal termination of Gaussian 16 at Fri Jul 24 14:46:08 2020.
