 Gaussian 16, Revision A.03,
 Gaussian 16:  EM64L-G16RevA.03 25-Dec-2016

 ---------------------------------------------------------------
 #P uLC-wPBE/cc-pVDZ iop(3/107=0228100000, 3/108=0228100000) opt
 ---------------------------------------------------------------

 --------------
 H27 C55 N5 F10
 --------------
 Symbolic Z-matrix:
 Charge =  0 Multiplicity = 1

 SCF Done:  E(ULC-wPBE) =  -3381.55277483     A.U. after   17 cycles
 SCF Done:  E(ULC-wPBE) =  -3381.63217555     A.U. after   15 cycles
 SCF Done:  E(ULC-wPBE) =  -3381.69204873     A.U. after   15 cycles
 SCF Done:  E(ULC-wPBE) =  -3381.70900019     A.U. after   13 cycles
 SCF Done:  E(ULC-wPBE) =  -3381.71421104     A.U. after   14 cycles
 SCF Done:  E(ULC-wPBE) =  -3381.71633205     A.U. after   15 cycles
 SCF Done:  E(ULC-wPBE) =  -3381.71435057     A.U. after   18 cycles
 SCF Done:  E(ULC-wPBE) =  -3381.71717463     A.U. after   15 cycles
 SCF Done:  E(ULC-wPBE) =  -3381.71853569     A.U. after   15 cycles
 SCF Done:  E(ULC-wPBE) =  -3381.71900857     A.U. after   13 cycles
 SCF Done:  E(ULC-wPBE) =  -3381.72036986     A.U. after   15 cycles
 SCF Done:  E(ULC-wPBE) =  -3381.71995523     A.U. after   16 cycles
 SCF Done:  E(ULC-wPBE) =  -3381.72139439     A.U. after   14 cycles
 SCF Done:  E(ULC-wPBE) =  -3381.72147017     A.U. after   12 cycles
 SCF Done:  E(ULC-wPBE) =  -3381.72147735     A.U. after   11 cycles
 SCF Done:  E(ULC-wPBE) =  -3381.72147822     A.U. after    8 cycles
 SCF Done:  E(ULC-wPBE) =  -3381.72147845     A.U. after    7 cycles
 SCF Done:  E(ULC-wPBE) =  -3381.72147832     A.U. after    7 cycles
 SCF Done:  E(ULC-wPBE) =  -3381.72147819     A.U. after    7 cycles
 SCF Done:  E(ULC-wPBE) =  -3381.72147819     A.U. after    6 cycles
 Optimization completed.
    -- Stationary point found.

                         Standard orientation:
 ---------------------------------------------------------------------
 Center     Atomic      Atomic             Coordinates (Angstroms)
 Number     Number       Type             X           Y           Z
 ---------------------------------------------------------------------
      1          6           0       20.626808    0.975600   -0.541953
      2          6           0       20.131167   -0.320886   -0.406875
      3          6           0       18.754335   -0.475941   -0.302234
      4          9           0       18.242989   -1.721069   -0.175984
      5          6           0       17.896461    0.635050   -0.330632
      6          7           0       18.389731    1.878194   -0.463620
      7          6           0       19.714262    2.034619   -0.565178
      8          6           0       16.419651    0.483147   -0.210848
      9          6           0       15.832621   -0.330670    0.771340
     10          6           0       14.448683   -0.435411    0.901231
     11          6           0       13.593933    0.270460    0.037971
     12          6           0       14.164144    1.077264   -0.957601
     13          6           0       15.548132    1.170364   -1.067844
     14          9           0       16.049320    1.940464   -2.051415
     15          6           0       12.117322    0.163756    0.166571
     16          6           0       11.488710    0.130977    1.417999
     17          6           0       10.105442    0.027717    1.460761
     18          9           0        9.492360    0.009384    2.665427
     19          6           0        9.344279   -0.040972    0.283924
     20          7           0        9.951924   -0.013818   -0.914566
     21          6           0       11.282262    0.082576   -0.962570
     22          6           0        7.860246   -0.149034    0.312946
     23          6           0        7.195774   -1.044952    1.166269
     24          6           0        5.807248   -1.166231    1.159504
     25          6           0        5.024885   -0.380653    0.296396
     26          6           0        5.671742    0.529298   -0.552558
     27          6           0        7.059219    0.632436   -0.532451
     28          9           0        7.633566    1.534211   -1.350068
     29          6           0        3.543710   -0.500598    0.284247
     30          6           0        2.906163   -1.743767    0.384929
     31          6           0        1.518917   -1.778706    0.368916
     32          9           0        0.898399   -2.975955    0.464800
     33          6           0        0.762726   -0.602649    0.250164
     34          7           0        1.378674    0.588622    0.162292
     35          6           0        2.712607    0.629627    0.180524
     36          6           0       -0.724768   -0.625049    0.212703
     37          6           0       -1.435452   -1.537600   -0.583884
     38          6           0       -2.828256   -1.529019   -0.638516
     39          6           0       -3.568076   -0.603377    0.116373
     40          6           0       -2.874038    0.307424    0.926485
     41          6           0       -1.483405    0.284505    0.964052
     42          9           0       -0.863413    1.151934    1.785650
     43          6           0       -5.053021   -0.586645    0.062898
     44          6           0       -5.800199   -1.771220    0.032377
     45          6           0       -7.184527   -1.683720   -0.023954
     46          9           0       -7.907400   -2.819521    0.015058
     47          6           0       -7.828468   -0.437809   -0.071774
     48          7           0       -7.108985    0.696536   -0.015707
     49          6           0       -5.777432    0.618407    0.046739
     50          6           0       -9.308117   -0.293805   -0.112474
     51          6           0       -9.936879    0.676281    0.683928
     52          6           0      -11.318753    0.850935    0.665550
     53          6           0      -12.127629    0.061383   -0.171238
     54          6           0      -11.511003   -0.892604   -0.994078
     55          6           0      -10.129311   -1.049458   -0.957845
     56          9           0       -9.571516   -1.938023   -1.808443
     57          6           0      -13.603131    0.235913   -0.195968
     58          6           0      -14.473521   -0.858116   -0.286163
     59          6           0      -15.839915   -0.616556   -0.303406
     60          9           0      -16.684010   -1.669820   -0.375823
     61          6           0      -16.349712    0.689120   -0.231286
     62          7           0      -15.510375    1.735731   -0.150050
     63          6           0      -14.194681    1.510471   -0.135300
     64          6           0      -17.812991    0.962904   -0.246758
     65          6           0      -18.670435    0.351906   -1.177047
     66          6           0      -20.035408    0.642389   -1.206204
     67          6           0      -20.573898    1.550739   -0.289822
     68          6           0      -19.747213    2.162883    0.654107
     69          6           0      -18.387385    1.862178    0.663673
     70          9           0      -17.614586    2.443134    1.602799
     71          1           0       21.703960    1.161361   -0.628527
     72          1           0       20.779153   -1.204925   -0.386255
     73          1           0       20.066818    3.071044   -0.670841
     74          1           0       16.482841   -0.893447    1.450645
     75          1           0       14.026546   -1.092528    1.671143
     76          1           0       13.546882    1.661196   -1.649900
     77          1           0       12.050299    0.212010    2.356219
     78          1           0       11.724726    0.075763   -1.969682
     79          1           0        7.788141   -1.662610    1.850679
     80          1           0        5.322795   -1.866195    1.850949
     81          1           0        5.113835    1.158508   -1.255476
     82          1           0        3.466136   -2.683527    0.458857
     83          1           0        3.159657    1.633292    0.126734
     84          1           0       -0.876327   -2.261102   -1.187849
     85          1           0       -3.347632   -2.234781   -1.297942
     86          1           0       -3.398965    1.028045    1.563980
     87          1           0       -5.328570   -2.759470    0.088451
     88          1           0       -5.242765    1.579426    0.065683
     89          1           0       -9.304593    1.296953    1.329449
     90          1           0      -11.780145    1.593530    1.327189
     91          1           0      -12.086105   -1.501459   -1.701313
     92          1           0      -14.110871   -1.892584   -0.315457
     93          1           0      -13.557972    2.406492   -0.092882
     94          1           0      -18.248359   -0.358614   -1.897190
     95          1           0      -20.680261    0.158335   -1.949259
     96          1           0      -21.645644    1.784673   -0.305275
     97          1           0      -20.134653    2.871815    1.394713
 ---------------------------------------------------------------------

 The electronic state is 1-A.
 Alpha  occ. eigenvalues --  -24.43120 -24.43094 -24.43050 -24.42584 -24.42487
 Alpha  occ. eigenvalues --  -24.41858 -24.41683 -24.41667 -24.41608 -24.40741
 Alpha  occ. eigenvalues --  -14.14037 -14.13983 -14.13944 -14.13845 -14.13366
 Alpha  occ. eigenvalues --  -10.12842 -10.12807 -10.12753 -10.12593 -10.12224
 Alpha  occ. eigenvalues --  -10.12180 -10.12165 -10.12105 -10.12012 -10.11096
 Alpha  occ. eigenvalues --  -10.08818 -10.08804 -10.08776 -10.08612 -10.08166
 Alpha  occ. eigenvalues --  -10.07248 -10.07216 -10.07163 -10.07157 -10.06696
 Alpha  occ. eigenvalues --  -10.06671 -10.06646 -10.06508 -10.06429 -10.06428
 Alpha  occ. eigenvalues --  -10.06345 -10.06333 -10.06298 -10.06272 -10.06129
 Alpha  occ. eigenvalues --  -10.06100 -10.06061 -10.05794 -10.05763 -10.05762
 Alpha  occ. eigenvalues --  -10.05719 -10.05662 -10.05432 -10.05209 -10.05209
 Alpha  occ. eigenvalues --  -10.05120 -10.04779 -10.04744 -10.04738 -10.04666
 Alpha  occ. eigenvalues --  -10.04640 -10.04605 -10.04591 -10.04550 -10.04485
 Alpha  occ. eigenvalues --  -10.04156 -10.04135 -10.04131 -10.03617 -10.03378
 Alpha  occ. eigenvalues --   -1.26902  -1.26874  -1.26827  -1.26635  -1.26274
 Alpha  occ. eigenvalues --   -1.25686  -1.25670  -1.25623  -1.25609  -1.24683
 Alpha  occ. eigenvalues --   -1.01472  -1.01430  -1.01395  -1.01257  -1.00845
 Alpha  occ. eigenvalues --   -0.94329  -0.94110  -0.93881  -0.93648  -0.92296
 Alpha  occ. eigenvalues --   -0.89879  -0.89429  -0.88943  -0.88498  -0.87961
 Alpha  occ. eigenvalues --   -0.86446  -0.86167  -0.85841  -0.85456  -0.84881
 Alpha  occ. eigenvalues --   -0.83404  -0.82414  -0.82238  -0.82149  -0.82091
 Alpha  occ. eigenvalues --   -0.81999  -0.81107  -0.80856  -0.79726  -0.78747
 Alpha  occ. eigenvalues --   -0.75318  -0.74131  -0.72897  -0.72617  -0.72288
 Alpha  occ. eigenvalues --   -0.71940  -0.71812  -0.71640  -0.71161  -0.70264
 Alpha  occ. eigenvalues --   -0.69535  -0.69078  -0.68616  -0.68548  -0.68312
 Alpha  occ. eigenvalues --   -0.67966  -0.67484  -0.67172  -0.66953  -0.66559
 Alpha  occ. eigenvalues --   -0.63307  -0.63224  -0.63049  -0.62560  -0.62400
 Alpha  occ. eigenvalues --   -0.61370  -0.60881  -0.60743  -0.60521  -0.60253
 Alpha  occ. eigenvalues --   -0.59755  -0.59598  -0.59476  -0.59378  -0.58988
 Alpha  occ. eigenvalues --   -0.58230  -0.58122  -0.58080  -0.57908  -0.57325
 Alpha  occ. eigenvalues --   -0.56680  -0.56443  -0.56346  -0.56151  -0.55775
 Alpha  occ. eigenvalues --   -0.55648  -0.55481  -0.55020  -0.54529  -0.54439
 Alpha  occ. eigenvalues --   -0.54400  -0.54205  -0.53914  -0.53622  -0.53392
 Alpha  occ. eigenvalues --   -0.53190  -0.53124  -0.53109  -0.52996  -0.52380
 Alpha  occ. eigenvalues --   -0.52150  -0.51882  -0.51725  -0.51465  -0.51228
 Alpha  occ. eigenvalues --   -0.50878  -0.50402  -0.49987  -0.49685  -0.49567
 Alpha  occ. eigenvalues --   -0.48949  -0.48815  -0.48766  -0.48587  -0.48395
 Alpha  occ. eigenvalues --   -0.48321  -0.48179  -0.47988  -0.47875  -0.47813
 Alpha  occ. eigenvalues --   -0.47527  -0.47496  -0.47468  -0.47378  -0.47084
 Alpha  occ. eigenvalues --   -0.46295  -0.46002  -0.45814  -0.45670  -0.45346
 Alpha  occ. eigenvalues --   -0.45271  -0.44964  -0.44859  -0.44799  -0.44523
 Alpha  occ. eigenvalues --   -0.44327  -0.44187  -0.44027  -0.43851  -0.43772
 Alpha  occ. eigenvalues --   -0.43481  -0.42284  -0.42241  -0.42206  -0.41922
 Alpha  occ. eigenvalues --   -0.40913  -0.39861  -0.39318  -0.38481  -0.37756
 Alpha  occ. eigenvalues --   -0.37425  -0.35818  -0.35637  -0.35448  -0.35225
 Alpha  occ. eigenvalues --   -0.34841  -0.33945  -0.33756  -0.33595  -0.33502
 Alpha  occ. eigenvalues --   -0.33464  -0.33419  -0.33376  -0.33156  -0.32891
 Alpha  occ. eigenvalues --   -0.32825  -0.32402  -0.31803  -0.30959  -0.30080
 Alpha  occ. eigenvalues --   -0.29495
 Alpha virt. eigenvalues --   -0.02298  -0.01446  -0.00278   0.01037   0.01924
 Alpha virt. eigenvalues --    0.02795   0.02850   0.02975   0.03323   0.03765
 Alpha virt. eigenvalues --    0.04205   0.04320   0.04350   0.04471   0.04802

  Beta  occ. eigenvalues --  -24.43120 -24.43094 -24.43050 -24.42584 -24.42487
  Beta  occ. eigenvalues --  -24.41858 -24.41683 -24.41667 -24.41608 -24.40741
  Beta  occ. eigenvalues --  -14.14037 -14.13983 -14.13944 -14.13845 -14.13366
  Beta  occ. eigenvalues --  -10.12842 -10.12807 -10.12753 -10.12593 -10.12224
  Beta  occ. eigenvalues --  -10.12180 -10.12165 -10.12105 -10.12012 -10.11096
  Beta  occ. eigenvalues --  -10.08818 -10.08804 -10.08776 -10.08612 -10.08166
  Beta  occ. eigenvalues --  -10.07248 -10.07216 -10.07163 -10.07157 -10.06696
  Beta  occ. eigenvalues --  -10.06671 -10.06646 -10.06508 -10.06429 -10.06428
  Beta  occ. eigenvalues --  -10.06345 -10.06333 -10.06298 -10.06272 -10.06129
  Beta  occ. eigenvalues --  -10.06100 -10.06061 -10.05794 -10.05763 -10.05762
  Beta  occ. eigenvalues --  -10.05719 -10.05662 -10.05432 -10.05209 -10.05209
  Beta  occ. eigenvalues --  -10.05120 -10.04779 -10.04744 -10.04738 -10.04666
  Beta  occ. eigenvalues --  -10.04640 -10.04605 -10.04591 -10.04550 -10.04485
  Beta  occ. eigenvalues --  -10.04156 -10.04135 -10.04131 -10.03617 -10.03378
  Beta  occ. eigenvalues --   -1.26902  -1.26874  -1.26827  -1.26635  -1.26274
  Beta  occ. eigenvalues --   -1.25686  -1.25670  -1.25623  -1.25609  -1.24683
  Beta  occ. eigenvalues --   -1.01472  -1.01430  -1.01395  -1.01257  -1.00845
  Beta  occ. eigenvalues --   -0.94329  -0.94110  -0.93881  -0.93648  -0.92296
  Beta  occ. eigenvalues --   -0.89879  -0.89429  -0.88943  -0.88498  -0.87961
  Beta  occ. eigenvalues --   -0.86446  -0.86167  -0.85841  -0.85456  -0.84881
  Beta  occ. eigenvalues --   -0.83404  -0.82414  -0.82238  -0.82149  -0.82091
  Beta  occ. eigenvalues --   -0.81999  -0.81107  -0.80856  -0.79726  -0.78747
  Beta  occ. eigenvalues --   -0.75318  -0.74131  -0.72897  -0.72617  -0.72288
  Beta  occ. eigenvalues --   -0.71940  -0.71812  -0.71640  -0.71161  -0.70264
  Beta  occ. eigenvalues --   -0.69535  -0.69078  -0.68616  -0.68548  -0.68312
  Beta  occ. eigenvalues --   -0.67966  -0.67484  -0.67172  -0.66953  -0.66559
  Beta  occ. eigenvalues --   -0.63307  -0.63224  -0.63049  -0.62560  -0.62400
  Beta  occ. eigenvalues --   -0.61370  -0.60881  -0.60743  -0.60521  -0.60253
  Beta  occ. eigenvalues --   -0.59755  -0.59598  -0.59476  -0.59378  -0.58988
  Beta  occ. eigenvalues --   -0.58230  -0.58122  -0.58080  -0.57908  -0.57325
  Beta  occ. eigenvalues --   -0.56680  -0.56443  -0.56346  -0.56151  -0.55775
  Beta  occ. eigenvalues --   -0.55648  -0.55481  -0.55020  -0.54529  -0.54439
  Beta  occ. eigenvalues --   -0.54400  -0.54205  -0.53914  -0.53622  -0.53392
  Beta  occ. eigenvalues --   -0.53190  -0.53124  -0.53109  -0.52996  -0.52380
  Beta  occ. eigenvalues --   -0.52150  -0.51882  -0.51725  -0.51465  -0.51228
  Beta  occ. eigenvalues --   -0.50878  -0.50402  -0.49987  -0.49685  -0.49567
  Beta  occ. eigenvalues --   -0.48949  -0.48815  -0.48766  -0.48587  -0.48395
  Beta  occ. eigenvalues --   -0.48321  -0.48179  -0.47988  -0.47875  -0.47813
  Beta  occ. eigenvalues --   -0.47527  -0.47496  -0.47468  -0.47378  -0.47084
  Beta  occ. eigenvalues --   -0.46295  -0.46002  -0.45814  -0.45670  -0.45346
  Beta  occ. eigenvalues --   -0.45271  -0.44964  -0.44859  -0.44799  -0.44523
  Beta  occ. eigenvalues --   -0.44327  -0.44187  -0.44027  -0.43851  -0.43772
  Beta  occ. eigenvalues --   -0.43481  -0.42284  -0.42241  -0.42206  -0.41922
  Beta  occ. eigenvalues --   -0.40913  -0.39861  -0.39318  -0.38481  -0.37756
  Beta  occ. eigenvalues --   -0.37425  -0.35818  -0.35637  -0.35448  -0.35225
  Beta  occ. eigenvalues --   -0.34841  -0.33945  -0.33756  -0.33595  -0.33502
  Beta  occ. eigenvalues --   -0.33464  -0.33419  -0.33376  -0.33156  -0.32891
  Beta  occ. eigenvalues --   -0.32825  -0.32402  -0.31803  -0.30959  -0.30080
  Beta  occ. eigenvalues --   -0.29495
  Beta virt. eigenvalues --   -0.02298  -0.01446  -0.00278   0.01037   0.01924
  Beta virt. eigenvalues --    0.02795   0.02850   0.02975   0.03323   0.03765
  Beta virt. eigenvalues --    0.04205   0.04320   0.04350   0.04471   0.04802

 Mulliken charges and spin densities:
               1          2
     1  C   -0.020191   0.000000
     2  C    0.060173   0.000000
     3  C    0.111099   0.000000
     4  F   -0.122281   0.000000
     5  C    0.007475  -0.000000
     6  N   -0.167874   0.000000
     7  C    0.081463  -0.000000
     8  C   -0.025648   0.000000
     9  C    0.050122  -0.000000
    10  C    0.009370   0.000000
    11  C    0.021473  -0.000000
    12  C    0.000333   0.000000
    13  C    0.121001  -0.000000
    14  F   -0.107278   0.000000
    15  C   -0.040376  -0.000000
    16  C    0.067198  -0.000000
    17  C    0.116308   0.000000
    18  F   -0.120900  -0.000000
    19  C    0.012330  -0.000000
    20  N   -0.166206   0.000000
    21  C    0.084381  -0.000000
    22  C   -0.026771   0.000000
    23  C    0.048077  -0.000000
    24  C    0.010000  -0.000000
    25  C    0.021668   0.000000
    26  C    0.000957   0.000000
    27  C    0.120575  -0.000000
    28  F   -0.107103  -0.000000
    29  C   -0.041927  -0.000000
    30  C    0.068119   0.000000
    31  C    0.117390  -0.000000
    32  F   -0.121313  -0.000000
    33  C    0.011848   0.000000
    34  N   -0.165782  -0.000000
    35  C    0.084152   0.000000
    36  C   -0.025850  -0.000000
    37  C    0.046992   0.000000
    38  C    0.010357   0.000000
    39  C    0.023358  -0.000000
    40  C    0.000040   0.000000
    41  C    0.119978   0.000000
    42  F   -0.107472  -0.000000
    43  C   -0.042219   0.000000
    44  C    0.065486  -0.000000
    45  C    0.123741  -0.000000
    46  F   -0.113502  -0.000000
    47  C    0.012459   0.000000
    48  N   -0.177863  -0.000000
    49  C    0.086075   0.000000
    50  C   -0.022233  -0.000000
    51  C    0.054923   0.000000
    52  C    0.012091  -0.000000
    53  C    0.023176   0.000000
    54  C    0.004914  -0.000000
    55  C    0.106908  -0.000000
    56  F   -0.119107  -0.000000
    57  C   -0.042548  -0.000000
    58  C    0.065937   0.000000
    59  C    0.116600  -0.000000
    60  F   -0.121131  -0.000000
    61  C    0.014893   0.000000
    62  N   -0.165275   0.000000
    63  C    0.082552  -0.000000
    64  C   -0.034792  -0.000000
    65  C    0.036587  -0.000000
    66  C    0.023112   0.000000
    67  C    0.032191   0.000000
    68  C    0.008182  -0.000000
    69  C    0.111080   0.000000
    70  F   -0.112955  -0.000000
    71  H    0.002388  -0.000000
    72  H    0.012055  -0.000000
    73  H    0.011013   0.000000
    74  H   -0.011958  -0.000000
    75  H   -0.018643  -0.000000
    76  H   -0.001462   0.000000
    77  H    0.003330  -0.000000
    78  H    0.007873  -0.000000
    79  H   -0.011882  -0.000000
    80  H   -0.017344  -0.000000
    81  H   -0.002172  -0.000000
    82  H    0.002933   0.000000
    83  H    0.008276  -0.000000
    84  H   -0.011427  -0.000000
    85  H   -0.016547   0.000000
    86  H   -0.003374   0.000000
    87  H    0.003596   0.000000
    88  H    0.007437  -0.000000
    89  H   -0.011461   0.000000
    90  H   -0.012943  -0.000000
    91  H   -0.005486   0.000000
    92  H    0.002193   0.000000
    93  H    0.006737   0.000000
    94  H   -0.015330   0.000000
    95  H   -0.011149  -0.000000
    96  H   -0.006024  -0.000000
    97  H    0.000825   0.000000
 Sum of Mulliken charges =  -0.00000  -0.00000

 Dipole moment (field-independent basis, Debye):
    X=              6.3580    Y=             -3.7760    Z=              1.2212  Tot=              7.4949
 Quadrupole moment (field-independent basis, Debye-Ang):
   XX=           -258.0248   YY=           -387.7233   ZZ=           -385.9561
   XY=             -7.2922   XZ=             28.0965   YZ=              1.5863

 Normal termination of Gaussian 16 at Fri Jul 24 20:26:28 2020.
