 Gaussian 16, Revision A.03,
 Gaussian 16:  EM64L-G16RevA.03 25-Dec-2016

 ---------------------------------------------------------------
 #P uLC-wPBE/cc-pVDZ iop(3/107=0206700000, 3/108=0206700000) opt
 ---------------------------------------------------------------

 -------------
 H27 C45 S5 N5
 -------------
 Symbolic Z-matrix:
 Charge =  0 Multiplicity = 1

 SCF Done:  E(ULC-wPBE) =  -3993.34650785     A.U. after   17 cycles
 SCF Done:  E(ULC-wPBE) =  -3993.41940660     A.U. after   15 cycles
 SCF Done:  E(ULC-wPBE) =  -3993.47136813     A.U. after   16 cycles
 SCF Done:  E(ULC-wPBE) =  -3993.48592252     A.U. after   15 cycles
 SCF Done:  E(ULC-wPBE) =  -3993.48951054     A.U. after   17 cycles
 SCF Done:  E(ULC-wPBE) =  -3993.49016468     A.U. after   15 cycles
 SCF Done:  E(ULC-wPBE) =  -3993.49066611     A.U. after   16 cycles
 SCF Done:  E(ULC-wPBE) =  -3993.49079268     A.U. after   15 cycles
 SCF Done:  E(ULC-wPBE) =  -3993.49087120     A.U. after   13 cycles
 SCF Done:  E(ULC-wPBE) =  -3993.49091195     A.U. after   12 cycles
 SCF Done:  E(ULC-wPBE) =  -3993.49094843     A.U. after   12 cycles
 SCF Done:  E(ULC-wPBE) =  -3993.49095437     A.U. after   11 cycles
 SCF Done:  E(ULC-wPBE) =  -3993.49095766     A.U. after   11 cycles
 SCF Done:  E(ULC-wPBE) =  -3993.49095987     A.U. after   11 cycles
 SCF Done:  E(ULC-wPBE) =  -3993.49096077     A.U. after   11 cycles
 SCF Done:  E(ULC-wPBE) =  -3993.49096106     A.U. after   11 cycles
 SCF Done:  E(ULC-wPBE) =  -3993.49096116     A.U. after    8 cycles
 SCF Done:  E(ULC-wPBE) =  -3993.49096134     A.U. after    7 cycles
 SCF Done:  E(ULC-wPBE) =  -3993.49096137     A.U. after    7 cycles
 SCF Done:  E(ULC-wPBE) =  -3993.49096132     A.U. after    6 cycles
 Optimization completed.
    -- Stationary point found.

                         Standard orientation:
 ---------------------------------------------------------------------
 Center     Atomic      Atomic             Coordinates (Angstroms)
 Number     Number       Type             X           Y           Z
 ---------------------------------------------------------------------
      1          6           0      -19.514196    1.111735   -0.137032
      2          6           0      -18.573557    1.474263   -1.107381
      3          6           0      -17.210483    1.278841   -0.871784
      4          6           0      -16.771388    0.716695    0.339252
      5          6           0      -17.722360    0.354527    1.310933
      6          6           0      -19.083083    0.551882    1.071928
      7          6           0      -15.341988    0.491242    0.630391
      8          7           0      -14.900638   -0.018374    1.758113
      9          6           0      -13.536129   -0.115338    1.753891
     10          6           0      -12.881948    0.317394    0.618044
     11         16           0      -14.075087    0.881791   -0.519408
     12          6           0      -11.437765    0.337019    0.334617
     13          6           0      -10.865934    1.294488   -0.526276
     14          6           0       -9.495768    1.310328   -0.773586
     15          6           0       -8.646969    0.370260   -0.161622
     16          6           0       -9.212327   -0.588380    0.696587
     17          6           0      -10.585186   -0.609050    0.936011
     18          6           0       -7.201915    0.425299   -0.446906
     19          7           0       -6.655790    1.298057   -1.263799
     20          6           0       -5.301698    1.121194   -1.338199
     21          6           0       -4.761028    0.103740   -0.577459
     22         16           0       -6.053837   -0.677331    0.290807
     23          6           0       -3.355290   -0.316797   -0.461762
     24          6           0       -3.003737   -1.650553   -0.174894
     25          6           0       -1.669302   -2.037124   -0.082524
     26          6           0       -0.637693   -1.101570   -0.280618
     27          6           0       -0.982866    0.230669   -0.565447
     28          6           0       -2.318994    0.618427   -0.648593
     29          6           0        0.761426   -1.553904   -0.178057
     30          7           0        1.105563   -2.789214    0.109159
     31          6           0        2.465963   -2.927022    0.136717
     32          6           0        3.214363   -1.797813   -0.129897
     33         16           0        2.121437   -0.476789   -0.439575
     34          6           0        4.678096   -1.647360   -0.165771
     35          6           0        5.301315   -0.424666    0.146976
     36          6           0        6.689656   -0.301493    0.122719
     37          6           0        7.501295   -1.399697   -0.207760
     38          6           0        6.883201   -2.624049   -0.521997
     39          6           0        5.496272   -2.743169   -0.507466
     40          6           0        8.972678   -1.317238   -0.241261
     41          7           0        9.748969   -2.329745   -0.556389
     42          6           0       11.068046   -1.972193   -0.505142
     43          6           0       11.349258   -0.668859   -0.146610
     44         16           0        9.842964    0.155848    0.146309
     45          6           0       12.658327   -0.009262   -0.011920
     46          6           0       13.796043   -0.760363    0.340960
     47          6           0       15.046758   -0.154646    0.449055
     48          6           0       15.199992    1.223357    0.221042
     49          6           0       14.064672    1.979587   -0.121123
     50          6           0       12.817173    1.371976   -0.238356
     51          6           0       16.503270    1.905985    0.330870
     52          7           0       16.665041    3.194644    0.135835
     53          6           0       17.977687    3.557120    0.301602
     54          6           0       18.845349    2.545264    0.627897
     55         16           0       17.984597    1.052765    0.735784
     56          1           0      -20.584982    1.266136   -0.323472
     57          1           0      -18.902821    1.914180   -2.057584
     58          1           0      -16.482552    1.569285   -1.642006
     59          1           0      -17.364290   -0.082345    2.250744
     60          1           0      -19.815903    0.265473    1.837636
     61          1           0      -13.027356   -0.500172    2.645414
     62          1           0      -11.507014    2.050604   -0.998975
     63          1           0       -9.050459    2.056904   -1.441662
     64          1           0       -8.576256   -1.343141    1.178971
     65          1           0      -11.007862   -1.385812    1.585308
     66          1           0       -4.716890    1.764462   -2.005927
     67          1           0       -3.792555   -2.402117   -0.036696
     68          1           0       -1.395372   -3.075483    0.138281
     69          1           0       -0.198977    0.986107   -0.712879
     70          1           0       -2.564467    1.670166   -0.841482
     71          1           0        2.897312   -3.902376    0.389997
     72          1           0        4.688873    0.441970    0.428866
     73          1           0        7.143189    0.667060    0.373660
     74          1           0        7.520664   -3.475142   -0.789116
     75          1           0        5.034210   -3.698890   -0.785404
     76          1           0       11.831118   -2.712942   -0.770899
     77          1           0       13.695287   -1.831895    0.553860
     78          1           0       15.913278   -0.769158    0.729030
     79          1           0       14.189308    3.054144   -0.299416
     80          1           0       11.948075    1.978388   -0.526739
     81          1           0       18.265193    4.606525    0.170091
     82          1           0       19.922620    2.595462    0.807008
 ---------------------------------------------------------------------

 The electronic state is 1-A.
 Alpha  occ. eigenvalues --  -88.22959 -88.22948 -88.22945 -88.22843 -88.22521
 Alpha  occ. eigenvalues --  -14.12283 -14.12259 -14.12159 -14.12141 -14.11824
 Alpha  occ. eigenvalues --  -10.08887 -10.08876 -10.08777 -10.08763 -10.08448
 Alpha  occ. eigenvalues --  -10.06338 -10.06319 -10.06231 -10.05928 -10.05481
 Alpha  occ. eigenvalues --  -10.05260 -10.05236 -10.05210 -10.05171 -10.05137
 Alpha  occ. eigenvalues --  -10.05120 -10.05090 -10.04907 -10.04892 -10.04679
 Alpha  occ. eigenvalues --  -10.04656 -10.04641 -10.04480 -10.03948 -10.03761
 Alpha  occ. eigenvalues --  -10.03730 -10.03722 -10.03594 -10.03567 -10.03564
 Alpha  occ. eigenvalues --  -10.03533 -10.03398 -10.03387 -10.03359 -10.03349
 Alpha  occ. eigenvalues --  -10.03179 -10.03085 -10.03062 -10.03057 -10.02915
 Alpha  occ. eigenvalues --  -10.02907 -10.02616 -10.02558 -10.02423 -10.02249
 Alpha  occ. eigenvalues --   -7.83398  -7.83388  -7.83384  -7.83283  -7.82961
 Alpha  occ. eigenvalues --   -5.85364  -5.85355  -5.85343  -5.85250  -5.84928
 Alpha  occ. eigenvalues --   -5.84927  -5.84918  -5.84904  -5.84812  -5.84570
 Alpha  occ. eigenvalues --   -5.84566  -5.84556  -5.84491  -5.84451  -5.84129
 Alpha  occ. eigenvalues --   -1.01226  -1.01197  -1.01103  -1.01013  -1.00777
 Alpha  occ. eigenvalues --   -0.92528  -0.92338  -0.92136  -0.91977  -0.90763
 Alpha  occ. eigenvalues --   -0.87506  -0.87212  -0.86944  -0.86739  -0.85642
 Alpha  occ. eigenvalues --   -0.84180  -0.83882  -0.83507  -0.82922  -0.82277
 Alpha  occ. eigenvalues --   -0.81069  -0.80978  -0.80889  -0.80774  -0.80002
 Alpha  occ. eigenvalues --   -0.79789  -0.78913  -0.77747  -0.76665  -0.75833
 Alpha  occ. eigenvalues --   -0.71533  -0.70706  -0.69799  -0.69276  -0.68511
 Alpha  occ. eigenvalues --   -0.68397  -0.67746  -0.67660  -0.66875  -0.66525
 Alpha  occ. eigenvalues --   -0.64744  -0.63916  -0.63445  -0.63056  -0.62762
 Alpha  occ. eigenvalues --   -0.62264  -0.62133  -0.61831  -0.61697  -0.61219
 Alpha  occ. eigenvalues --   -0.59325  -0.59016  -0.58365  -0.57644  -0.56816
 Alpha  occ. eigenvalues --   -0.55911  -0.54778  -0.54023  -0.53778  -0.53650
 Alpha  occ. eigenvalues --   -0.53098  -0.52780  -0.52467  -0.52394  -0.52200
 Alpha  occ. eigenvalues --   -0.51725  -0.51205  -0.51006  -0.50548  -0.50149
 Alpha  occ. eigenvalues --   -0.50107  -0.49935  -0.49736  -0.49563  -0.49469
 Alpha  occ. eigenvalues --   -0.49163  -0.49005  -0.48970  -0.48805  -0.48298
 Alpha  occ. eigenvalues --   -0.48070  -0.48017  -0.47871  -0.47595  -0.47310
 Alpha  occ. eigenvalues --   -0.47173  -0.46307  -0.46038  -0.45515  -0.44987
 Alpha  occ. eigenvalues --   -0.44725  -0.44287  -0.44193  -0.43793  -0.43625
 Alpha  occ. eigenvalues --   -0.43338  -0.42897  -0.42799  -0.42383  -0.42192
 Alpha  occ. eigenvalues --   -0.41315  -0.41044  -0.40893  -0.40726  -0.40539
 Alpha  occ. eigenvalues --   -0.40267  -0.39636  -0.38816  -0.37739  -0.36648
 Alpha  occ. eigenvalues --   -0.35865  -0.35287  -0.35149  -0.35043  -0.34901
 Alpha  occ. eigenvalues --   -0.34308  -0.34106  -0.34029  -0.33986  -0.33917
 Alpha  occ. eigenvalues --   -0.33707  -0.33663  -0.33649  -0.33584  -0.33342
 Alpha  occ. eigenvalues --   -0.32820  -0.31863  -0.30373  -0.28798  -0.27407
 Alpha  occ. eigenvalues --   -0.26471
 Alpha virt. eigenvalues --   -0.03730  -0.02685  -0.01315   0.00194   0.01491
 Alpha virt. eigenvalues --    0.03260   0.03340   0.03433   0.03589   0.04272
 Alpha virt. eigenvalues --    0.04471   0.05492   0.06569   0.07153   0.07562

  Beta  occ. eigenvalues --  -88.22959 -88.22948 -88.22945 -88.22843 -88.22521
  Beta  occ. eigenvalues --  -14.12283 -14.12259 -14.12159 -14.12141 -14.11824
  Beta  occ. eigenvalues --  -10.08887 -10.08876 -10.08777 -10.08763 -10.08448
  Beta  occ. eigenvalues --  -10.06338 -10.06319 -10.06231 -10.05928 -10.05481
  Beta  occ. eigenvalues --  -10.05260 -10.05236 -10.05210 -10.05171 -10.05137
  Beta  occ. eigenvalues --  -10.05120 -10.05090 -10.04907 -10.04892 -10.04679
  Beta  occ. eigenvalues --  -10.04656 -10.04641 -10.04480 -10.03948 -10.03761
  Beta  occ. eigenvalues --  -10.03730 -10.03722 -10.03594 -10.03567 -10.03564
  Beta  occ. eigenvalues --  -10.03533 -10.03398 -10.03387 -10.03359 -10.03349
  Beta  occ. eigenvalues --  -10.03179 -10.03085 -10.03062 -10.03057 -10.02915
  Beta  occ. eigenvalues --  -10.02907 -10.02616 -10.02558 -10.02423 -10.02249
  Beta  occ. eigenvalues --   -7.83398  -7.83388  -7.83384  -7.83283  -7.82961
  Beta  occ. eigenvalues --   -5.85364  -5.85355  -5.85343  -5.85250  -5.84928
  Beta  occ. eigenvalues --   -5.84927  -5.84918  -5.84904  -5.84812  -5.84570
  Beta  occ. eigenvalues --   -5.84566  -5.84556  -5.84491  -5.84451  -5.84129
  Beta  occ. eigenvalues --   -1.01226  -1.01197  -1.01103  -1.01013  -1.00777
  Beta  occ. eigenvalues --   -0.92528  -0.92338  -0.92136  -0.91977  -0.90763
  Beta  occ. eigenvalues --   -0.87506  -0.87212  -0.86944  -0.86739  -0.85642
  Beta  occ. eigenvalues --   -0.84180  -0.83882  -0.83507  -0.82922  -0.82277
  Beta  occ. eigenvalues --   -0.81069  -0.80978  -0.80889  -0.80774  -0.80002
  Beta  occ. eigenvalues --   -0.79789  -0.78913  -0.77747  -0.76665  -0.75833
  Beta  occ. eigenvalues --   -0.71533  -0.70706  -0.69799  -0.69276  -0.68511
  Beta  occ. eigenvalues --   -0.68397  -0.67746  -0.67660  -0.66875  -0.66525
  Beta  occ. eigenvalues --   -0.64744  -0.63916  -0.63445  -0.63056  -0.62762
  Beta  occ. eigenvalues --   -0.62264  -0.62133  -0.61831  -0.61697  -0.61219
  Beta  occ. eigenvalues --   -0.59325  -0.59016  -0.58365  -0.57644  -0.56816
  Beta  occ. eigenvalues --   -0.55911  -0.54778  -0.54023  -0.53778  -0.53650
  Beta  occ. eigenvalues --   -0.53098  -0.52780  -0.52467  -0.52394  -0.52200
  Beta  occ. eigenvalues --   -0.51725  -0.51205  -0.51006  -0.50548  -0.50149
  Beta  occ. eigenvalues --   -0.50107  -0.49935  -0.49736  -0.49563  -0.49469
  Beta  occ. eigenvalues --   -0.49163  -0.49005  -0.48970  -0.48805  -0.48298
  Beta  occ. eigenvalues --   -0.48070  -0.48017  -0.47871  -0.47595  -0.47310
  Beta  occ. eigenvalues --   -0.47173  -0.46307  -0.46038  -0.45515  -0.44987
  Beta  occ. eigenvalues --   -0.44725  -0.44287  -0.44193  -0.43793  -0.43625
  Beta  occ. eigenvalues --   -0.43338  -0.42897  -0.42799  -0.42383  -0.42192
  Beta  occ. eigenvalues --   -0.41315  -0.41044  -0.40893  -0.40726  -0.40539
  Beta  occ. eigenvalues --   -0.40267  -0.39636  -0.38816  -0.37739  -0.36648
  Beta  occ. eigenvalues --   -0.35865  -0.35287  -0.35149  -0.35043  -0.34901
  Beta  occ. eigenvalues --   -0.34308  -0.34106  -0.34029  -0.33986  -0.33917
  Beta  occ. eigenvalues --   -0.33707  -0.33663  -0.33649  -0.33584  -0.33342
  Beta  occ. eigenvalues --   -0.32820  -0.31863  -0.30373  -0.28798  -0.27407
  Beta  occ. eigenvalues --   -0.26471
  Beta virt. eigenvalues --   -0.03730  -0.02685  -0.01315   0.00194   0.01491
  Beta virt. eigenvalues --    0.03260   0.03340   0.03433   0.03589   0.04272
  Beta virt. eigenvalues --    0.04471   0.05492   0.06569   0.07153   0.07562

 Mulliken charges and spin densities:
               1          2
     1  C    0.025705  -0.000000
     2  C    0.030652  -0.000000
     3  C   -0.018577  -0.000000
     4  C    0.008034   0.000000
     5  C    0.042027  -0.000000
     6  C    0.035221   0.000000
     7  C    0.006708   0.000000
     8  N   -0.180025   0.000000
     9  C    0.129828   0.000000
    10  C   -0.202215  -0.000000
    11  S    0.135784   0.000000
    12  C    0.066132  -0.000000
    13  C    0.014887   0.000000
    14  C    0.052807  -0.000000
    15  C    0.022045   0.000000
    16  C   -0.005929  -0.000000
    17  C    0.008245   0.000000
    18  C    0.002173  -0.000000
    19  N   -0.180790   0.000000
    20  C    0.130463  -0.000000
    21  C   -0.201558   0.000000
    22  S    0.138340  -0.000000
    23  C    0.065476   0.000000
    24  C    0.014937  -0.000000
    25  C    0.053119   0.000000
    26  C    0.022246  -0.000000
    27  C   -0.005660   0.000000
    28  C    0.008423  -0.000000
    29  C    0.002281   0.000000
    30  N   -0.180492  -0.000000
    31  C    0.131276   0.000000
    32  C   -0.201146   0.000000
    33  S    0.136555  -0.000000
    34  C    0.065082  -0.000000
    35  C    0.010215   0.000000
    36  C   -0.006358  -0.000000
    37  C    0.022092   0.000000
    38  C    0.053890  -0.000000
    39  C    0.013359   0.000000
    40  C    0.001914  -0.000000
    41  N   -0.180751   0.000000
    42  C    0.130497   0.000000
    43  C   -0.200791   0.000000
    44  S    0.138652   0.000000
    45  C    0.064287  -0.000000
    46  C    0.007524   0.000000
    47  C   -0.003805  -0.000000
    48  C    0.029689   0.000000
    49  C    0.052244  -0.000000
    50  C    0.014139  -0.000000
    51  C   -0.016333  -0.000000
    52  N   -0.183680   0.000000
    53  C    0.127456  -0.000000
    54  C   -0.163037   0.000000
    55  S    0.144344  -0.000000
    56  H   -0.013108  -0.000000
    57  H   -0.012420   0.000000
    58  H   -0.013508   0.000000
    59  H   -0.015292   0.000000
    60  H   -0.010364   0.000000
    61  H    0.003722   0.000000
    62  H   -0.011982  -0.000000
    63  H   -0.013146  -0.000000
    64  H   -0.011622  -0.000000
    65  H   -0.018520  -0.000000
    66  H    0.004605   0.000000
    67  H   -0.011691   0.000000
    68  H   -0.012422  -0.000000
    69  H   -0.011620   0.000000
    70  H   -0.018432  -0.000000
    71  H    0.005908  -0.000000
    72  H   -0.013907  -0.000000
    73  H   -0.011132  -0.000000
    74  H   -0.012462  -0.000000
    75  H   -0.016236  -0.000000
    76  H    0.004806   0.000000
    77  H   -0.018588   0.000000
    78  H   -0.011756  -0.000000
    79  H   -0.012087   0.000000
    80  H   -0.012001   0.000000
    81  H    0.005442   0.000000
    82  H    0.030214   0.000000
 Sum of Mulliken charges =  -0.00000  -0.00000

 Dipole moment (field-independent basis, Debye):
    X=              3.0502    Y=              0.7173    Z=              0.0303  Tot=              3.1335
 Quadrupole moment (field-independent basis, Debye-Ang):
   XX=           -257.2469   YY=           -339.7563   ZZ=           -353.6418
   XY=             -0.6174   XZ=             17.2278   YZ=             -7.5337

 Normal termination of Gaussian 16 at Fri Jul 24 22:15:30 2020.
