 Gaussian 16, Revision A.03,
 Gaussian 16:  EM64L-G16RevA.03 25-Dec-2016

 ---------------------------------------------------------------
 #P uLC-wPBE/cc-pVDZ iop(3/107=0341700000, 3/108=0341700000) opt
 ---------------------------------------------------------------

 ----------------
 H11 C24 S3 N6 F3
 ----------------
 Symbolic Z-matrix:
 Charge =  0 Multiplicity = 1

 SCF Done:  E(ULC-wPBE) =  -2742.29039958     A.U. after   17 cycles
 SCF Done:  E(ULC-wPBE) =  -2742.34530709     A.U. after   14 cycles
 SCF Done:  E(ULC-wPBE) =  -2742.37160074     A.U. after   15 cycles
 SCF Done:  E(ULC-wPBE) =  -2742.37242734     A.U. after   13 cycles
 SCF Done:  E(ULC-wPBE) =  -2742.37249733     A.U. after   12 cycles
 SCF Done:  E(ULC-wPBE) =  -2742.37262441     A.U. after   12 cycles
 SCF Done:  E(ULC-wPBE) =  -2742.37265878     A.U. after   12 cycles
 SCF Done:  E(ULC-wPBE) =  -2742.37274002     A.U. after   13 cycles
 SCF Done:  E(ULC-wPBE) =  -2742.31601449     A.U. after   15 cycles
 SCF Done:  E(ULC-wPBE) =  -2742.37320868     A.U. after   15 cycles
 SCF Done:  E(ULC-wPBE) =  -2742.37349345     A.U. after   13 cycles
 SCF Done:  E(ULC-wPBE) =  -2742.37376824     A.U. after   13 cycles
 SCF Done:  E(ULC-wPBE) =  -2742.37385101     A.U. after   13 cycles
 SCF Done:  E(ULC-wPBE) =  -2742.37390217     A.U. after   12 cycles
 SCF Done:  E(ULC-wPBE) =  -2742.37393214     A.U. after   12 cycles
 SCF Done:  E(ULC-wPBE) =  -2742.37393767     A.U. after   11 cycles
 SCF Done:  E(ULC-wPBE) =  -2742.37393857     A.U. after   10 cycles
 SCF Done:  E(ULC-wPBE) =  -2742.37393917     A.U. after   10 cycles
 SCF Done:  E(ULC-wPBE) =  -2742.37393905     A.U. after    9 cycles
 SCF Done:  E(ULC-wPBE) =  -2742.37393904     A.U. after    7 cycles
 Optimization completed.
    -- Stationary point found.

                         Standard orientation:
 ---------------------------------------------------------------------
 Center     Atomic      Atomic             Coordinates (Angstroms)
 Number     Number       Type             X           Y           Z
 ---------------------------------------------------------------------
      1          6           0       11.111477    0.294832   -0.822546
      2          6           0       10.066031    1.206710   -0.952397
      3          7           0        8.800485    0.898094   -0.694313
      4          6           0        8.497680   -0.340347   -0.290684
      5          6           0        9.491045   -1.311179   -0.137214
      6          9           0        9.192888   -2.546772    0.263963
      7          6           0       10.813782   -0.994122   -0.404826
      8          6           0        7.067729   -0.587182   -0.030284
      9          7           0        6.535447   -1.703905    0.375200
     10          6           0        5.183811   -1.564871    0.507570
     11          6           0        4.667277   -0.332670    0.200584
     12         16           0        5.950530    0.716513   -0.283880
     13          6           0        3.262961    0.096757    0.255418
     14          6           0        2.225234   -0.812053    0.001677
     15          7           0        0.941469   -0.492459    0.059334
     16          6           0        0.582259    0.760515    0.358932
     17          6           0        1.551720    1.735091    0.608668
     18          9           0        1.211016    2.989005    0.903049
     19          6           0        2.895316    1.406219    0.562092
     20          6           0       -0.867327    1.015977    0.396623
     21          7           0       -1.445257    2.149420    0.674022
     22          6           0       -2.802609    2.016825    0.614887
     23          6           0       -3.278060    0.773196    0.287706
     24         16           0       -1.945415   -0.296046    0.037880
     25          6           0       -4.678383    0.347004    0.155046
     26          6           0       -5.660838    1.241859   -0.291213
     27          7           0       -6.941714    0.925437   -0.408961
     28          6           0       -7.351170   -0.311243   -0.107078
     29          6           0       -6.434737   -1.272288    0.329019
     30          9           0       -6.822057   -2.511352    0.630100
     31          6           0       -5.096839   -0.946368    0.465611
     32          6           0       -8.793105   -0.566941   -0.269713
     33          7           0       -9.406347   -1.690237   -0.030446
     34          6           0      -10.744601   -1.564854   -0.290718
     35          6           0      -11.149005   -0.338466   -0.730266
     36         16           0       -9.809169    0.725182   -0.830783
     37          1           0       12.139414    0.590339   -1.044915
     38          1           0       10.255613    2.234718   -1.279514
     39          1           0       11.579695   -1.763338   -0.280251
     40          1           0        4.595723   -2.412343    0.866366
     41          1           0        2.454422   -1.846513   -0.275373
     42          1           0        3.634312    2.181482    0.780512
     43          1           0       -3.431125    2.878738    0.848885
     44          1           0       -5.386130    2.262091   -0.579931
     45          1           0       -4.403948   -1.710619    0.827251
     46          1           0      -11.400274   -2.424454   -0.138643
     47          1           0      -12.155916   -0.017275   -0.995082
 ---------------------------------------------------------------------

 The electronic state is 1-A.
 Alpha  occ. eigenvalues --  -88.30817 -88.30561 -88.29499 -24.48937 -24.48901
 Alpha  occ. eigenvalues --  -24.48295 -14.21427 -14.21354 -14.20789 -14.20037
 Alpha  occ. eigenvalues --  -14.19796 -14.18760 -10.20048 -10.20022 -10.19431
 Alpha  occ. eigenvalues --  -10.17133 -10.16890 -10.16108 -10.15987 -10.15782
 Alpha  occ. eigenvalues --  -10.15391 -10.14599 -10.14473 -10.14436 -10.14315
 Alpha  occ. eigenvalues --  -10.14156 -10.14069 -10.13778 -10.13299 -10.13226
 Alpha  occ. eigenvalues --  -10.13192 -10.12985 -10.12683 -10.12677 -10.12121
 Alpha  occ. eigenvalues --  -10.11804  -7.91457  -7.91202  -7.90150  -5.93152
 Alpha  occ. eigenvalues --   -5.92897  -5.92652  -5.92398  -5.92303  -5.92048
 Alpha  occ. eigenvalues --   -5.91833  -5.91335  -5.91017  -1.33759  -1.33743
 Alpha  occ. eigenvalues --   -1.33130  -1.10850  -1.10623  -1.09739  -1.08844
 Alpha  occ. eigenvalues --   -1.08580  -1.07804  -0.97859  -0.97366  -0.95322
 Alpha  occ. eigenvalues --   -0.93288  -0.92838  -0.92730  -0.92374  -0.92141
 Alpha  occ. eigenvalues --   -0.91499  -0.88351  -0.86441  -0.84573  -0.80569
 Alpha  occ. eigenvalues --   -0.78595  -0.78343  -0.77514  -0.77159  -0.77050
 Alpha  occ. eigenvalues --   -0.71424  -0.70992  -0.70748  -0.70201  -0.70137
 Alpha  occ. eigenvalues --   -0.69392  -0.67013  -0.66096  -0.65295  -0.64825
 Alpha  occ. eigenvalues --   -0.64403  -0.64026  -0.62626  -0.62035  -0.61658
 Alpha  occ. eigenvalues --   -0.61143  -0.60438  -0.60353  -0.59839  -0.59256
 Alpha  occ. eigenvalues --   -0.57874  -0.56186  -0.55714  -0.55587  -0.54778
 Alpha  occ. eigenvalues --   -0.54709  -0.54444  -0.53866  -0.53565  -0.53501
 Alpha  occ. eigenvalues --   -0.53044  -0.52727  -0.52454  -0.52317  -0.52168
 Alpha  occ. eigenvalues --   -0.51575  -0.51104  -0.49983  -0.49270  -0.49113
 Alpha  occ. eigenvalues --   -0.47983  -0.47496  -0.46667  -0.44857  -0.43085
 Alpha  occ. eigenvalues --   -0.41423  -0.39482  -0.39268  -0.39086  -0.39037
 Alpha  occ. eigenvalues --   -0.38783  -0.38639  -0.38362  -0.38322  -0.37983
 Alpha  occ. eigenvalues --   -0.37738  -0.37546  -0.36994  -0.34852  -0.32610
 Alpha  occ. eigenvalues --   -0.30655
 Alpha virt. eigenvalues --   -0.02746  -0.00504   0.01620   0.03993   0.04262
 Alpha virt. eigenvalues --    0.04534   0.06460   0.08724   0.10373   0.11303
 Alpha virt. eigenvalues --    0.11476   0.12868   0.13109   0.13770   0.14403

  Beta  occ. eigenvalues --  -88.30817 -88.30561 -88.29499 -24.48937 -24.48901
  Beta  occ. eigenvalues --  -24.48295 -14.21427 -14.21354 -14.20789 -14.20037
  Beta  occ. eigenvalues --  -14.19796 -14.18760 -10.20048 -10.20022 -10.19431
  Beta  occ. eigenvalues --  -10.17133 -10.16890 -10.16108 -10.15987 -10.15782
  Beta  occ. eigenvalues --  -10.15391 -10.14599 -10.14473 -10.14436 -10.14315
  Beta  occ. eigenvalues --  -10.14156 -10.14069 -10.13778 -10.13299 -10.13226
  Beta  occ. eigenvalues --  -10.13192 -10.12985 -10.12683 -10.12677 -10.12121
  Beta  occ. eigenvalues --  -10.11804  -7.91457  -7.91202  -7.90150  -5.93152
  Beta  occ. eigenvalues --   -5.92897  -5.92652  -5.92398  -5.92303  -5.92048
  Beta  occ. eigenvalues --   -5.91833  -5.91335  -5.91017  -1.33759  -1.33743
  Beta  occ. eigenvalues --   -1.33130  -1.10850  -1.10623  -1.09739  -1.08844
  Beta  occ. eigenvalues --   -1.08580  -1.07804  -0.97859  -0.97366  -0.95322
  Beta  occ. eigenvalues --   -0.93288  -0.92838  -0.92730  -0.92374  -0.92141
  Beta  occ. eigenvalues --   -0.91499  -0.88351  -0.86441  -0.84573  -0.80569
  Beta  occ. eigenvalues --   -0.78595  -0.78343  -0.77514  -0.77159  -0.77050
  Beta  occ. eigenvalues --   -0.71424  -0.70992  -0.70748  -0.70201  -0.70137
  Beta  occ. eigenvalues --   -0.69392  -0.67013  -0.66096  -0.65295  -0.64825
  Beta  occ. eigenvalues --   -0.64403  -0.64026  -0.62626  -0.62035  -0.61658
  Beta  occ. eigenvalues --   -0.61143  -0.60438  -0.60353  -0.59839  -0.59256
  Beta  occ. eigenvalues --   -0.57874  -0.56186  -0.55714  -0.55587  -0.54778
  Beta  occ. eigenvalues --   -0.54709  -0.54444  -0.53866  -0.53565  -0.53501
  Beta  occ. eigenvalues --   -0.53044  -0.52727  -0.52454  -0.52317  -0.52168
  Beta  occ. eigenvalues --   -0.51575  -0.51104  -0.49983  -0.49270  -0.49113
  Beta  occ. eigenvalues --   -0.47983  -0.47496  -0.46667  -0.44857  -0.43085
  Beta  occ. eigenvalues --   -0.41423  -0.39482  -0.39268  -0.39086  -0.39037
  Beta  occ. eigenvalues --   -0.38783  -0.38639  -0.38362  -0.38322  -0.37983
  Beta  occ. eigenvalues --   -0.37738  -0.37546  -0.36994  -0.34852  -0.32610
  Beta  occ. eigenvalues --   -0.30655
  Beta virt. eigenvalues --   -0.02746  -0.00504   0.01620   0.03993   0.04262
  Beta virt. eigenvalues --    0.04534   0.06460   0.08724   0.10373   0.11303
  Beta virt. eigenvalues --    0.11476   0.12868   0.13109   0.13770   0.14403

 Mulliken charges and spin densities:
               1          2
     1  C   -0.034987   0.000000
     2  C    0.084933  -0.000000
     3  N   -0.206503  -0.000000
     4  C    0.047515  -0.000000
     5  C    0.128682  -0.000000
     6  F   -0.095297  -0.000000
     7  C    0.050639   0.000000
     8  C   -0.007462   0.000000
     9  N   -0.169511  -0.000000
    10  C    0.111549   0.000000
    11  C   -0.222978  -0.000000
    12  S    0.203768   0.000000
    13  C   -0.027893   0.000000
    14  C    0.093582   0.000000
    15  N   -0.203498  -0.000000
    16  C    0.050212   0.000000
    17  C    0.138898  -0.000000
    18  F   -0.092924   0.000000
    19  C    0.059410  -0.000000
    20  C   -0.012009  -0.000000
    21  N   -0.171091   0.000000
    22  C    0.111098   0.000000
    23  C   -0.221925  -0.000000
    24  S    0.204394  -0.000000
    25  C   -0.029152   0.000000
    26  C    0.091335  -0.000000
    27  N   -0.201023  -0.000000
    28  C    0.057742   0.000000
    29  C    0.136479  -0.000000
    30  F   -0.093952   0.000000
    31  C    0.057963  -0.000000
    32  C   -0.032023  -0.000000
    33  N   -0.177396   0.000000
    34  C    0.102235   0.000000
    35  C   -0.181944  -0.000000
    36  S    0.196998   0.000000
    37  H    0.019025   0.000000
    38  H    0.024503  -0.000000
    39  H    0.028995   0.000000
    40  H    0.020030  -0.000000
    41  H    0.020627   0.000000
    42  H    0.024600   0.000000
    43  H    0.019619   0.000000
    44  H    0.019087   0.000000
    45  H    0.023118   0.000000
    46  H    0.013865  -0.000000
    47  H    0.040668  -0.000000
 Sum of Mulliken charges =  -0.00000   0.00000

 Dipole moment (field-independent basis, Debye):
    X=              5.0928    Y=              0.8583    Z=             -0.7327  Tot=              5.2163
 Quadrupole moment (field-independent basis, Debye-Ang):
   XX=           -146.2011   YY=           -224.0960   ZZ=           -222.5557
   XY=              0.8033   XZ=             -3.5507   YZ=             -0.8501

 Normal termination of Gaussian 16 at Sat Jul 25 08:55:14 2020.
