 Gaussian 16, Revision A.03,
 Gaussian 16:  EM64L-G16RevA.03 25-Dec-2016

 ---------------------------------------------------------------
 #P uLC-wPBE/cc-pVDZ iop(3/107=0157500000, 3/108=0157500000) opt
 ---------------------------------------------------------------

 ----------------
 H20 C33 S3 O3 F6
 ----------------
 Symbolic Z-matrix:
 Charge =  0 Multiplicity = 1

 SCF Done:  E(ULC-wPBE) =  -3286.51207285     A.U. after   18 cycles
 SCF Done:  E(ULC-wPBE) =  -3286.58143430     A.U. after   15 cycles
 SCF Done:  E(ULC-wPBE) =  -3286.62510730     A.U. after   16 cycles
 SCF Done:  E(ULC-wPBE) =  -3286.63583373     A.U. after   14 cycles
 SCF Done:  E(ULC-wPBE) =  -3286.63964551     A.U. after   15 cycles
 SCF Done:  E(ULC-wPBE) =  -3286.64111847     A.U. after   15 cycles
 SCF Done:  E(ULC-wPBE) =  -3286.64184861     A.U. after   15 cycles
 SCF Done:  E(ULC-wPBE) =  -3286.64210496     A.U. after   13 cycles
 SCF Done:  E(ULC-wPBE) =  -3286.64223497     A.U. after   14 cycles
 SCF Done:  E(ULC-wPBE) =  -3286.64228141     A.U. after   12 cycles
 SCF Done:  E(ULC-wPBE) =  -3286.64230903     A.U. after   11 cycles
 SCF Done:  E(ULC-wPBE) =  -3286.64231138     A.U. after   10 cycles
 SCF Done:  E(ULC-wPBE) =  -3286.64231273     A.U. after   10 cycles
 SCF Done:  E(ULC-wPBE) =  -3286.64231306     A.U. after    8 cycles
 SCF Done:  E(ULC-wPBE) =  -3286.64231340     A.U. after    7 cycles
 SCF Done:  E(ULC-wPBE) =  -3286.64231351     A.U. after    7 cycles
 SCF Done:  E(ULC-wPBE) =  -3286.64231355     A.U. after    7 cycles
 SCF Done:  E(ULC-wPBE) =  -3286.64231361     A.U. after    6 cycles
 SCF Done:  E(ULC-wPBE) =  -3286.64231365     A.U. after    6 cycles
 SCF Done:  E(ULC-wPBE) =  -3286.64231364     A.U. after    6 cycles
 Optimization completed.
    -- Stationary point found.

                         Standard orientation:
 ---------------------------------------------------------------------
 Center     Atomic      Atomic             Coordinates (Angstroms)
 Number     Number       Type             X           Y           Z
 ---------------------------------------------------------------------
      1          6           0      -11.614795    0.859812   -0.407486
      2          6           0      -11.216444   -0.010886    0.612982
      3          6           0       -9.874509   -0.383186    0.698677
      4          9           0       -9.496941   -1.192394    1.711152
      5          6           0       -8.891803    0.060958   -0.210326
      6          6           0       -9.350123    0.943087   -1.209438
      7          9           0       -8.448896    1.419440   -2.101394
      8          6           0      -10.678475    1.349461   -1.325744
      9          6           0       -7.489913   -0.368249   -0.112020
     10          6           0       -7.006007   -1.665847    0.047735
     11          8           0       -7.871938   -2.714902    0.061526
     12          6           0       -7.309757   -4.001514    0.295566
     13          6           0       -5.582613   -1.731274    0.142364
     14          6           0       -4.978101   -0.488531    0.043477
     15         16           0       -6.165566    0.767228   -0.159261
     16          6           0       -3.542277   -0.174095    0.089084
     17          6           0       -3.023953    0.976153   -0.537538
     18          6           0       -1.658426    1.241904   -0.481134
     19          9           0       -1.198096    2.330493   -1.132249
     20          6           0       -0.732060    0.417630    0.191094
     21          6           0       -1.292729   -0.728566    0.789913
     22          9           0       -0.463485   -1.575523    1.445664
     23          6           0       -2.648959   -1.034732    0.758622
     24          6           0        0.699458    0.733751    0.253862
     25          6           0        1.288969    1.958374    0.566542
     26          8           0        0.509250    3.012794    0.927130
     27          6           0        1.176725    4.247506    1.164195
     28          6           0        2.715274    1.932415    0.503709
     29          6           0        3.217332    0.688621    0.156685
     30         16           0        1.929753   -0.453022   -0.101837
     31          6           0        4.625406    0.291539    0.006144
     32          6           0        5.601274    1.252424   -0.324892
     33          6           0        6.933393    0.870324   -0.458386
     34          9           0        7.828640    1.814688   -0.818483
     35          6           0        7.387713   -0.451348   -0.269326
     36          6           0        6.375449   -1.380450    0.042901
     37          9           0        6.732029   -2.673749    0.226323
     38          6           0        5.032623   -1.045433    0.185092
     39          6           0        8.802943   -0.821059   -0.395946
     40          6           0        9.902652   -0.177490    0.168558
     41          8           0        9.716016    0.894482    0.987329
     42          6           0       10.890114    1.533786    1.473911
     43          6           0       11.153753   -0.782436   -0.180122
     44          6           0       10.987968   -1.879044   -0.996651
     45         16           0        9.328922   -2.192649   -1.343683
     46          1           0      -12.666478    1.165559   -0.484899
     47          1           0      -11.922653   -0.400504    1.356237
     48          1           0      -10.956260    2.035143   -2.135323
     49          1           0       -8.159129   -4.706477    0.307961
     50          1           0       -6.605613   -4.295707   -0.512451
     51          1           0       -6.783844   -4.046957    1.273273
     52          1           0       -5.011129   -2.660219    0.236747
     53          1           0       -3.666294    1.659836   -1.106905
     54          1           0       -2.997154   -1.928724    1.289140
     55          1           0        1.733215    4.591042    0.265979
     56          1           0        0.385527    4.979482    1.402382
     57          1           0        1.877472    4.177388    2.024013
     58          1           0        3.360930    2.782449    0.746562
     59          1           0        5.335416    2.297581   -0.522802
     60          1           0        4.321271   -1.832889    0.464365
     61          1           0       10.542049    2.382683    2.088046
     62          1           0       11.497456    0.852298    2.108206
     63          1           0       11.521469    1.919177    0.644581
     64          1           0       12.133513   -0.431358    0.159535
     65          1           0       11.764002   -2.531911   -1.407780
 ---------------------------------------------------------------------

 The electronic state is 1-A.
 Alpha  occ. eigenvalues --  -88.19162 -88.19096 -88.18754 -24.38006 -24.37899
 Alpha  occ. eigenvalues --  -24.37735 -24.37609 -24.37582 -24.37468 -18.89295
 Alpha  occ. eigenvalues --  -18.89263 -18.88988 -10.07904 -10.07831 -10.07773
 Alpha  occ. eigenvalues --  -10.07731 -10.07667 -10.07647 -10.05207 -10.05177
 Alpha  occ. eigenvalues --  -10.04769 -10.04673 -10.04630 -10.04478 -10.02996
 Alpha  occ. eigenvalues --  -10.02941 -10.02494 -10.02328 -10.02057 -10.02031
 Alpha  occ. eigenvalues --  -10.01852 -10.01827 -10.01756 -10.01605 -10.01531
 Alpha  occ. eigenvalues --  -10.00892 -10.00077  -9.99978  -9.99969  -9.99931
 Alpha  occ. eigenvalues --   -9.99914  -9.99872  -9.99869  -9.99840  -9.99552
 Alpha  occ. eigenvalues --   -7.79457  -7.79392  -7.79049  -5.81521  -5.81456
 Alpha  occ. eigenvalues --   -5.81107  -5.81067  -5.81002  -5.80648  -5.80642
 Alpha  occ. eigenvalues --   -5.80575  -5.80251  -1.21483  -1.21373  -1.21231
 Alpha  occ. eigenvalues --   -1.21217  -1.21164  -1.21053  -1.07490  -1.07462
 Alpha  occ. eigenvalues --   -1.07154  -0.91168  -0.90849  -0.89937  -0.88969
 Alpha  occ. eigenvalues --   -0.88242  -0.87716  -0.82635  -0.81241  -0.79726
 Alpha  occ. eigenvalues --   -0.77863  -0.77631  -0.77447  -0.77310  -0.77032
 Alpha  occ. eigenvalues --   -0.76789  -0.75996  -0.74946  -0.74246  -0.71959
 Alpha  occ. eigenvalues --   -0.71312  -0.69845  -0.68012  -0.65933  -0.65779
 Alpha  occ. eigenvalues --   -0.65457  -0.65301  -0.64480  -0.60994  -0.60935
 Alpha  occ. eigenvalues --   -0.60664  -0.59728  -0.59677  -0.58884  -0.58535
 Alpha  occ. eigenvalues --   -0.58090  -0.57269  -0.56917  -0.55843  -0.55349
 Alpha  occ. eigenvalues --   -0.54971  -0.54830  -0.54626  -0.52796  -0.52637
 Alpha  occ. eigenvalues --   -0.52025  -0.51628  -0.51351  -0.50989  -0.50554
 Alpha  occ. eigenvalues --   -0.50491  -0.50415  -0.50333  -0.50264  -0.50229
 Alpha  occ. eigenvalues --   -0.49641  -0.49366  -0.48986  -0.48144  -0.48079
 Alpha  occ. eigenvalues --   -0.48052  -0.47411  -0.47192  -0.46968  -0.46601
 Alpha  occ. eigenvalues --   -0.45740  -0.45479  -0.45172  -0.44611  -0.44511
 Alpha  occ. eigenvalues --   -0.44314  -0.44098  -0.43828  -0.43530  -0.43006
 Alpha  occ. eigenvalues --   -0.42749  -0.42307  -0.40722  -0.40484  -0.40357
 Alpha  occ. eigenvalues --   -0.40328  -0.40208  -0.40105  -0.39824  -0.39669
 Alpha  occ. eigenvalues --   -0.39327  -0.38716  -0.38588  -0.38352  -0.37626
 Alpha  occ. eigenvalues --   -0.37561  -0.37338  -0.36624  -0.36542  -0.36313
 Alpha  occ. eigenvalues --   -0.33776  -0.32748  -0.31440  -0.29858  -0.29722
 Alpha  occ. eigenvalues --   -0.29674  -0.29432  -0.28786  -0.28526  -0.26422
 Alpha  occ. eigenvalues --   -0.25288  -0.23845
 Alpha virt. eigenvalues --   -0.02659  -0.00642   0.02186   0.03104   0.03486
 Alpha virt. eigenvalues --    0.03680   0.03822   0.05493   0.06709   0.07504
 Alpha virt. eigenvalues --    0.07741   0.08139   0.10452   0.10492   0.10562

  Beta  occ. eigenvalues --  -88.19162 -88.19096 -88.18754 -24.38006 -24.37899
  Beta  occ. eigenvalues --  -24.37735 -24.37609 -24.37582 -24.37468 -18.89295
  Beta  occ. eigenvalues --  -18.89263 -18.88988 -10.07904 -10.07831 -10.07773
  Beta  occ. eigenvalues --  -10.07731 -10.07667 -10.07647 -10.05207 -10.05177
  Beta  occ. eigenvalues --  -10.04769 -10.04673 -10.04630 -10.04478 -10.02996
  Beta  occ. eigenvalues --  -10.02941 -10.02494 -10.02328 -10.02057 -10.02031
  Beta  occ. eigenvalues --  -10.01852 -10.01827 -10.01756 -10.01605 -10.01531
  Beta  occ. eigenvalues --  -10.00892 -10.00077  -9.99978  -9.99969  -9.99931
  Beta  occ. eigenvalues --   -9.99914  -9.99872  -9.99869  -9.99840  -9.99552
  Beta  occ. eigenvalues --   -7.79457  -7.79392  -7.79049  -5.81521  -5.81456
  Beta  occ. eigenvalues --   -5.81107  -5.81067  -5.81002  -5.80648  -5.80642
  Beta  occ. eigenvalues --   -5.80575  -5.80251  -1.21483  -1.21373  -1.21231
  Beta  occ. eigenvalues --   -1.21217  -1.21164  -1.21053  -1.07490  -1.07462
  Beta  occ. eigenvalues --   -1.07154  -0.91168  -0.90849  -0.89937  -0.88969
  Beta  occ. eigenvalues --   -0.88242  -0.87716  -0.82635  -0.81241  -0.79726
  Beta  occ. eigenvalues --   -0.77863  -0.77631  -0.77447  -0.77310  -0.77032
  Beta  occ. eigenvalues --   -0.76789  -0.75996  -0.74946  -0.74246  -0.71959
  Beta  occ. eigenvalues --   -0.71312  -0.69845  -0.68012  -0.65933  -0.65779
  Beta  occ. eigenvalues --   -0.65457  -0.65301  -0.64480  -0.60994  -0.60935
  Beta  occ. eigenvalues --   -0.60664  -0.59728  -0.59677  -0.58884  -0.58535
  Beta  occ. eigenvalues --   -0.58090  -0.57269  -0.56917  -0.55843  -0.55349
  Beta  occ. eigenvalues --   -0.54971  -0.54830  -0.54626  -0.52796  -0.52637
  Beta  occ. eigenvalues --   -0.52025  -0.51628  -0.51351  -0.50989  -0.50554
  Beta  occ. eigenvalues --   -0.50491  -0.50415  -0.50333  -0.50264  -0.50229
  Beta  occ. eigenvalues --   -0.49641  -0.49366  -0.48986  -0.48144  -0.48079
  Beta  occ. eigenvalues --   -0.48052  -0.47411  -0.47192  -0.46968  -0.46601
  Beta  occ. eigenvalues --   -0.45740  -0.45479  -0.45172  -0.44611  -0.44511
  Beta  occ. eigenvalues --   -0.44314  -0.44098  -0.43828  -0.43530  -0.43006
  Beta  occ. eigenvalues --   -0.42749  -0.42307  -0.40722  -0.40484  -0.40357
  Beta  occ. eigenvalues --   -0.40328  -0.40208  -0.40105  -0.39824  -0.39669
  Beta  occ. eigenvalues --   -0.39327  -0.38716  -0.38588  -0.38352  -0.37626
  Beta  occ. eigenvalues --   -0.37561  -0.37338  -0.36624  -0.36542  -0.36313
  Beta  occ. eigenvalues --   -0.33776  -0.32748  -0.31440  -0.29858  -0.29722
  Beta  occ. eigenvalues --   -0.29674  -0.29432  -0.28786  -0.28526  -0.26422
  Beta  occ. eigenvalues --   -0.25288  -0.23845
  Beta virt. eigenvalues --   -0.02659  -0.00642   0.02186   0.03104   0.03486
  Beta virt. eigenvalues --    0.03680   0.03822   0.05493   0.06709   0.07504
  Beta virt. eigenvalues --    0.07741   0.08139   0.10452   0.10492   0.10562

 Mulliken charges and spin densities:
               1          2
     1  C    0.042307   0.000000
     2  C    0.013345   0.000000
     3  C    0.109037  -0.000000
     4  F   -0.114468  -0.000000
     5  C   -0.048799   0.000000
     6  C    0.105371  -0.000000
     7  F   -0.119229   0.000000
     8  C    0.014866   0.000000
     9  C   -0.178658   0.000000
    10  C    0.174984  -0.000000
    11  O   -0.230924   0.000000
    12  C    0.060149  -0.000000
    13  C   -0.002646   0.000000
    14  C   -0.144957  -0.000000
    15  S    0.177693  -0.000000
    16  C    0.097114   0.000000
    17  C   -0.006334  -0.000000
    18  C    0.112841   0.000000
    19  F   -0.112160   0.000000
    20  C   -0.040151   0.000000
    21  C    0.113215  -0.000000
    22  F   -0.118483   0.000000
    23  C   -0.008055   0.000000
    24  C   -0.180575  -0.000000
    25  C    0.171870   0.000000
    26  O   -0.230434  -0.000000
    27  C    0.060225   0.000000
    28  C   -0.001427  -0.000000
    29  C   -0.143733   0.000000
    30  S    0.176140   0.000000
    31  C    0.095495   0.000000
    32  C   -0.010751  -0.000000
    33  C    0.117557   0.000000
    34  F   -0.114436  -0.000000
    35  C   -0.030868  -0.000000
    36  C    0.109979   0.000000
    37  F   -0.117457  -0.000000
    38  C   -0.006018  -0.000000
    39  C   -0.196543   0.000000
    40  C    0.156989   0.000000
    41  O   -0.230456   0.000000
    42  C    0.058851  -0.000000
    43  C    0.020561  -0.000000
    44  C   -0.120386   0.000000
    45  S    0.176653  -0.000000
    46  H   -0.005607   0.000000
    47  H   -0.004803  -0.000000
    48  H   -0.004133  -0.000000
    49  H    0.051308   0.000000
    50  H    0.044807  -0.000000
    51  H    0.043794   0.000000
    52  H   -0.012172   0.000000
    53  H   -0.005336   0.000000
    54  H   -0.016101   0.000000
    55  H    0.043809  -0.000000
    56  H    0.051889  -0.000000
    57  H    0.044439  -0.000000
    58  H   -0.012546  -0.000000
    59  H   -0.017315   0.000000
    60  H   -0.005557   0.000000
    61  H    0.049581   0.000000
    62  H    0.042420  -0.000000
    63  H    0.043421   0.000000
    64  H   -0.010194  -0.000000
    65  H    0.021002  -0.000000
 Sum of Mulliken charges =  -0.00000  -0.00000

 Dipole moment (field-independent basis, Debye):
    X=              0.6343    Y=              1.0381    Z=              1.3031  Tot=              1.7827
 Quadrupole moment (field-independent basis, Debye-Ang):
   XX=           -200.1407   YY=           -245.5850   ZZ=           -276.2817
   XY=             20.4668   XZ=              8.2387   YZ=              5.0565

 Normal termination of Gaussian 16 at Fri Jul 24 19:09:46 2020.
