 Gaussian 16, Revision A.03,
 Gaussian 16:  EM64L-G16RevA.03 25-Dec-2016

 ---------------------------------------------------------------
 #P uLC-wPBE/cc-pVDZ iop(3/107=0095400000, 3/108=0095400000) opt
 ---------------------------------------------------------------

 ----------
 H12 C13 O1
 ----------
 Symbolic Z-matrix:
 Charge =  0 Multiplicity = 1

 SCF Done:  E(ULC-wPBE) =  -577.201749545     A.U. after   15 cycles
 SCF Done:  E(ULC-wPBE) =  -577.230918363     A.U. after   13 cycles
 SCF Done:  E(ULC-wPBE) =  -577.238366907     A.U. after   13 cycles
 SCF Done:  E(ULC-wPBE) =  -577.238882230     A.U. after   12 cycles
 SCF Done:  E(ULC-wPBE) =  -577.239222711     A.U. after   13 cycles
 SCF Done:  E(ULC-wPBE) =  -577.239311015     A.U. after   12 cycles
 SCF Done:  E(ULC-wPBE) =  -577.239348703     A.U. after   11 cycles
 SCF Done:  E(ULC-wPBE) =  -577.239351332     A.U. after    9 cycles
 SCF Done:  E(ULC-wPBE) =  -577.239351666     A.U. after    7 cycles
 SCF Done:  E(ULC-wPBE) =  -577.239351741     A.U. after    7 cycles
 Optimization completed.
    -- Stationary point found.

                         Standard orientation:
 ---------------------------------------------------------------------
 Center     Atomic      Atomic             Coordinates (Angstroms)
 Number     Number       Type             X           Y           Z
 ---------------------------------------------------------------------
      1          6           0       -3.824367    0.115650    0.012095
      2          6           0       -3.252247   -0.935057   -0.719526
      3          6           0       -1.864816   -1.132800   -0.700382
      4          6           0       -1.017450   -0.286169    0.048253
      5          6           0       -1.607825    0.771951    0.774409
      6          6           0       -2.994891    0.966607    0.758613
      7          6           0        0.447582   -0.554446    0.089030
      8          6           0        0.914443   -1.872557    0.254503
      9          6           0        2.281958   -2.183078    0.280652
     10          6           0        3.218723   -1.154520    0.135517
     11          6           0        2.791673    0.171740   -0.033642
     12          6           0        1.418316    0.478094   -0.056073
     13          8           0        0.929967    1.747473   -0.230723
     14          6           0        1.868109    2.797357   -0.438492
     15          1           0       -4.912570    0.273363   -0.001605
     16          1           0       -3.889376   -1.604043   -1.316416
     17          1           0       -1.421643   -1.947204   -1.292332
     18          1           0       -0.968087    1.442163    1.362772
     19          1           0       -3.433195    1.791910    1.338913
     20          1           0        0.171110   -2.672250    0.387364
     21          1           0        2.608929   -3.222620    0.421093
     22          1           0        4.296031   -1.374015    0.155271
     23          1           0        3.538385    0.966859   -0.151575
     24          1           0        2.542162    2.931416    0.436469
     25          1           0        2.486517    2.624176   -1.346717
     26          1           0        1.266765    3.713835   -0.577192
 ---------------------------------------------------------------------

 The electronic state is 1-A.
 Alpha  occ. eigenvalues --  -18.85608 -10.01177 -10.00981  -9.96149  -9.96101
 Alpha  occ. eigenvalues --   -9.95632  -9.95407  -9.95395  -9.95188  -9.95149
 Alpha  occ. eigenvalues --   -9.95110  -9.95100  -9.94939  -9.94848  -1.03381
 Alpha  occ. eigenvalues --   -0.83638  -0.81668  -0.75598  -0.73328  -0.72000
 Alpha  occ. eigenvalues --   -0.70626  -0.67977  -0.61291  -0.59680  -0.57802
 Alpha  occ. eigenvalues --   -0.56985  -0.53404  -0.50687  -0.48405  -0.47505
 Alpha  occ. eigenvalues --   -0.46950  -0.45284  -0.44461  -0.43742  -0.42247
 Alpha  occ. eigenvalues --   -0.41654  -0.41233  -0.38970  -0.37877  -0.37192
 Alpha  occ. eigenvalues --   -0.36063  -0.35611  -0.34213  -0.33176  -0.32643
 Alpha  occ. eigenvalues --   -0.29087  -0.27117  -0.26032  -0.23689
 Alpha virt. eigenvalues --   -0.00575   0.01871   0.02473   0.04129   0.08622
 Alpha virt. eigenvalues --    0.09231   0.10200   0.12514   0.12940   0.13797
 Alpha virt. eigenvalues --    0.14584   0.14935   0.15399   0.15717   0.16696

  Beta  occ. eigenvalues --  -18.85608 -10.01177 -10.00981  -9.96149  -9.96101
  Beta  occ. eigenvalues --   -9.95632  -9.95407  -9.95395  -9.95188  -9.95149
  Beta  occ. eigenvalues --   -9.95110  -9.95100  -9.94939  -9.94848  -1.03381
  Beta  occ. eigenvalues --   -0.83638  -0.81668  -0.75598  -0.73328  -0.72000
  Beta  occ. eigenvalues --   -0.70626  -0.67977  -0.61291  -0.59680  -0.57802
  Beta  occ. eigenvalues --   -0.56985  -0.53404  -0.50687  -0.48405  -0.47505
  Beta  occ. eigenvalues --   -0.46950  -0.45284  -0.44461  -0.43742  -0.42247
  Beta  occ. eigenvalues --   -0.41654  -0.41233  -0.38970  -0.37877  -0.37192
  Beta  occ. eigenvalues --   -0.36063  -0.35611  -0.34213  -0.33176  -0.32643
  Beta  occ. eigenvalues --   -0.29087  -0.27117  -0.26032  -0.23689
  Beta virt. eigenvalues --   -0.00575   0.01871   0.02473   0.04129   0.08622
  Beta virt. eigenvalues --    0.09231   0.10200   0.12514   0.12940   0.13797
  Beta virt. eigenvalues --    0.14584   0.14935   0.15399   0.15717   0.16696

 Mulliken charges and spin densities:
               1          2
     1  C    0.023212   0.000000
     2  C    0.028206  -0.000000
     3  C    0.007299   0.000000
     4  C    0.029193   0.000000
     5  C    0.034109   0.000000
     6  C    0.027298  -0.000000
     7  C   -0.010735  -0.000000
     8  C    0.015878   0.000000
     9  C    0.031561  -0.000000
    10  C    0.027430   0.000000
    11  C   -0.020891  -0.000000
    12  C    0.087032   0.000000
    13  O   -0.234658  -0.000000
    14  C    0.064037   0.000000
    15  H   -0.024743  -0.000000
    16  H   -0.023196  -0.000000
    17  H   -0.030692  -0.000000
    18  H   -0.036835  -0.000000
    19  H   -0.023961   0.000000
    20  H   -0.030244  -0.000000
    21  H   -0.026911   0.000000
    22  H   -0.023880   0.000000
    23  H   -0.023913   0.000000
    24  H    0.042913  -0.000000
    25  H    0.043707  -0.000000
    26  H    0.048783  -0.000000
 Sum of Mulliken charges =  -0.00000   0.00000

 Dipole moment (field-independent basis, Debye):
    X=              1.1062    Y=              1.1928    Z=             -0.2021  Tot=              1.6393
 Quadrupole moment (field-independent basis, Debye-Ang):
   XX=            -72.8862   YY=            -72.5544   ZZ=            -84.6154
   XY=              3.5611   XZ=             -0.1998   YZ=              1.5444

 Normal termination of Gaussian 16 at Fri Jul 24 15:48:08 2020.
