 Gaussian 16, Revision A.03,
 Gaussian 16:  EM64L-G16RevA.03 25-Dec-2016

 ---------------------------------------------------------------
 #P uLC-wPBE/cc-pVDZ iop(3/107=0221200000, 3/108=0221200000) opt
 ---------------------------------------------------------------

 -------------
 H29 C36 N3 O3
 -------------
 Symbolic Z-matrix:
 Charge =  0 Multiplicity = 1

 SCF Done:  E(ULC-wPBE) =  -1777.63738049     A.U. after   17 cycles
 SCF Done:  E(ULC-wPBE) =  -1777.70516008     A.U. after   16 cycles
 SCF Done:  E(ULC-wPBE) =  -1777.75530069     A.U. after   17 cycles
 SCF Done:  E(ULC-wPBE) =  -1777.75935325     A.U. after   15 cycles
 SCF Done:  E(ULC-wPBE) =  -1777.76069998     A.U. after   15 cycles
 SCF Done:  E(ULC-wPBE) =  -1777.76130542     A.U. after   15 cycles
 SCF Done:  E(ULC-wPBE) =  -1777.76147978     A.U. after   15 cycles
 SCF Done:  E(ULC-wPBE) =  -1777.76157686     A.U. after   13 cycles
 SCF Done:  E(ULC-wPBE) =  -1777.76159984     A.U. after   12 cycles
 SCF Done:  E(ULC-wPBE) =  -1777.76161006     A.U. after   12 cycles
 SCF Done:  E(ULC-wPBE) =  -1777.76161524     A.U. after   12 cycles
 SCF Done:  E(ULC-wPBE) =  -1777.76161764     A.U. after   12 cycles
 SCF Done:  E(ULC-wPBE) =  -1777.76161837     A.U. after    8 cycles
 SCF Done:  E(ULC-wPBE) =  -1777.76161856     A.U. after    8 cycles
 SCF Done:  E(ULC-wPBE) =  -1777.76161862     A.U. after    7 cycles
 Optimization completed.
    -- Stationary point found.

                         Standard orientation:
 ---------------------------------------------------------------------
 Center     Atomic      Atomic             Coordinates (Angstroms)
 Number     Number       Type             X           Y           Z
 ---------------------------------------------------------------------
      1          6           0      -12.348204   -0.026102   -0.313172
      2          6           0      -11.706220    1.166208   -0.650677
      3          6           0      -10.314443    1.233547   -0.582557
      4          6           0       -9.592252    0.095946   -0.175664
      5          7           0      -10.213581   -1.061437    0.135143
      6          6           0      -11.548074   -1.107083    0.066418
      7          6           0       -8.098225    0.046227   -0.108461
      8          6           0       -7.473721   -1.202419   -0.244629
      9          6           0       -6.089341   -1.355257   -0.196267
     10          6           0       -5.267172   -0.237826    0.006906
     11          6           0       -5.871063    1.021014    0.164592
     12          6           0       -7.263708    1.171646    0.109507
     13          8           0       -7.878574    2.380878    0.285726
     14          6           0       -7.070780    3.507405    0.591604
     15          6           0       -3.788850   -0.371878    0.059187
     16          6           0       -3.156373   -1.443193    0.706419
     17          6           0       -1.765934   -1.527810    0.720590
     18          6           0       -1.007515   -0.527851    0.084410
     19          7           0       -1.606340    0.511889   -0.534036
     20          6           0       -2.939186    0.572500   -0.542908
     21          6           0        0.487394   -0.490868    0.081049
     22          6           0        1.115773    0.751490   -0.093767
     23          6           0        2.501801    0.893383   -0.110390
     24          6           0        3.324008   -0.232591    0.039883
     25          6           0        2.717984   -1.489798    0.199874
     26          6           0        1.322971   -1.628401    0.218654
     27          8           0        0.709359   -2.842493    0.360726
     28          6           0        1.522226   -4.005623    0.405718
     29          6           0        4.804175   -0.108877    0.027913
     30          6           0        5.471974    0.946159    0.666575
     31          6           0        6.862087    1.022345    0.619564
     32          6           0        7.584531    0.030652   -0.069123
     33          7           0        6.952071   -0.993004   -0.680330
     34          6           0        5.619589   -1.045812   -0.630178
     35          6           0        9.078469   -0.014862   -0.136536
     36          6           0        9.689003   -1.263585   -0.331202
     37          6           0       11.074754   -1.410963   -0.406410
     38          6           0       11.885944   -0.281497   -0.297000
     39          6           0       11.312662    0.980979   -0.119779
     40          6           0        9.918711    1.123790   -0.040110
     41          8           0        9.308879    2.339636    0.113478
     42          6           0       10.123916    3.501042    0.119392
     43          1           0      -13.440136   -0.122971   -0.347409
     44          1           0      -12.283975    2.043519   -0.970096
     45          1           0       -9.784997    2.152972   -0.843770
     46          1           0      -12.007003   -2.072103    0.332720
     47          1           0       -8.127432   -2.069749   -0.390492
     48          1           0       -5.643945   -2.346990   -0.342140
     49          1           0       -5.234155    1.888569    0.364073
     50          1           0       -7.768331    4.351542    0.719796
     51          1           0       -6.362447    3.742972   -0.228883
     52          1           0       -6.501807    3.359696    1.531886
     53          1           0       -3.756500   -2.203909    1.223022
     54          1           0       -1.265284   -2.353370    1.231670
     55          1           0       -3.373134    1.426223   -1.087313
     56          1           0        0.462791    1.619837   -0.236777
     57          1           0        2.947914    1.883001   -0.268196
     58          1           0        3.356581   -2.368149    0.336796
     59          1           0        2.140659   -4.107392   -0.509009
     60          1           0        2.184550   -4.012844    1.295470
     61          1           0        0.825018   -4.857395    0.468343
     62          1           0        4.900400    1.699938    1.224139
     63          1           0        7.391000    1.835180    1.122863
     64          1           0        5.156052   -1.885865   -1.171455
     65          1           0        9.023777   -2.128535   -0.433499
     66          1           0       11.516149   -2.404418   -0.551512
     67          1           0       12.978524   -0.371410   -0.352312
     68          1           0       11.962894    1.858566   -0.046612
     69          1           0        9.431728    4.354532    0.210427
     70          1           0       10.825445    3.509862    0.978820
     71          1           0       10.701835    3.600170   -0.821978
 ---------------------------------------------------------------------

 The electronic state is 1-A.
 Alpha  occ. eigenvalues --  -18.92892 -18.92866 -18.92663 -14.11446 -14.11380
 Alpha  occ. eigenvalues --  -14.11320 -10.08813 -10.08787 -10.08494 -10.08303
 Alpha  occ. eigenvalues --  -10.08248 -10.08180 -10.06379 -10.06315 -10.06169
 Alpha  occ. eigenvalues --  -10.05314 -10.05304 -10.05201 -10.03972 -10.03945
 Alpha  occ. eigenvalues --  -10.03932 -10.03788 -10.03747 -10.03702 -10.03668
 Alpha  occ. eigenvalues --  -10.03049 -10.03049 -10.02998 -10.02816 -10.02641
 Alpha  occ. eigenvalues --  -10.02637 -10.02591 -10.02546 -10.02505 -10.02499
 Alpha  occ. eigenvalues --  -10.02289 -10.02157 -10.02130 -10.01887 -10.01857
 Alpha  occ. eigenvalues --  -10.01848 -10.01546  -1.11315  -1.11288  -1.11081
 Alpha  occ. eigenvalues --   -0.98793  -0.98665  -0.98663  -0.91529  -0.91162
 Alpha  occ. eigenvalues --   -0.90303  -0.87006  -0.86265  -0.85222  -0.84050
 Alpha  occ. eigenvalues --   -0.83725  -0.82830  -0.81081  -0.80950  -0.80780
 Alpha  occ. eigenvalues --   -0.80279  -0.78880  -0.77705  -0.76186  -0.75791
 Alpha  occ. eigenvalues --   -0.75146  -0.71682  -0.69863  -0.69511  -0.68953
 Alpha  occ. eigenvalues --   -0.68682  -0.67410  -0.65888  -0.65680  -0.65140
 Alpha  occ. eigenvalues --   -0.64571  -0.64308  -0.63867  -0.60738  -0.60464
 Alpha  occ. eigenvalues --   -0.60108  -0.57978  -0.57145  -0.57020  -0.56615
 Alpha  occ. eigenvalues --   -0.55824  -0.54763  -0.54686  -0.54212  -0.53981
 Alpha  occ. eigenvalues --   -0.53882  -0.53761  -0.53597  -0.52893  -0.52864
 Alpha  occ. eigenvalues --   -0.52764  -0.51652  -0.50692  -0.50416  -0.50066
 Alpha  occ. eigenvalues --   -0.50007  -0.49707  -0.48922  -0.48092  -0.47796
 Alpha  occ. eigenvalues --   -0.47666  -0.47564  -0.47395  -0.47067  -0.46826
 Alpha  occ. eigenvalues --   -0.46294  -0.46058  -0.45634  -0.45190  -0.44641
 Alpha  occ. eigenvalues --   -0.44530  -0.43990  -0.42999  -0.42942  -0.42784
 Alpha  occ. eigenvalues --   -0.42697  -0.41736  -0.41554  -0.41299  -0.39967
 Alpha  occ. eigenvalues --   -0.39800  -0.39196  -0.39066  -0.38504  -0.38109
 Alpha  occ. eigenvalues --   -0.37337  -0.36363  -0.35464  -0.34863  -0.34726
 Alpha  occ. eigenvalues --   -0.34052  -0.31969  -0.31588  -0.31470  -0.30941
 Alpha  occ. eigenvalues --   -0.30555  -0.30317  -0.29130  -0.28172  -0.26855
 Alpha virt. eigenvalues --   -0.00588   0.01251   0.03168   0.04133   0.04247
 Alpha virt. eigenvalues --    0.04551   0.06419   0.06441   0.06799   0.07233
 Alpha virt. eigenvalues --    0.09333   0.11064   0.12677   0.12733   0.12836

  Beta  occ. eigenvalues --  -18.92892 -18.92866 -18.92663 -14.11446 -14.11380
  Beta  occ. eigenvalues --  -14.11320 -10.08813 -10.08787 -10.08494 -10.08303
  Beta  occ. eigenvalues --  -10.08248 -10.08180 -10.06379 -10.06315 -10.06169
  Beta  occ. eigenvalues --  -10.05314 -10.05304 -10.05201 -10.03972 -10.03945
  Beta  occ. eigenvalues --  -10.03932 -10.03788 -10.03747 -10.03702 -10.03668
  Beta  occ. eigenvalues --  -10.03049 -10.03049 -10.02998 -10.02816 -10.02641
  Beta  occ. eigenvalues --  -10.02637 -10.02591 -10.02546 -10.02505 -10.02499
  Beta  occ. eigenvalues --  -10.02289 -10.02157 -10.02130 -10.01887 -10.01857
  Beta  occ. eigenvalues --  -10.01848 -10.01546  -1.11315  -1.11288  -1.11081
  Beta  occ. eigenvalues --   -0.98793  -0.98665  -0.98663  -0.91529  -0.91162
  Beta  occ. eigenvalues --   -0.90303  -0.87006  -0.86265  -0.85222  -0.84050
  Beta  occ. eigenvalues --   -0.83725  -0.82830  -0.81081  -0.80950  -0.80780
  Beta  occ. eigenvalues --   -0.80279  -0.78880  -0.77705  -0.76186  -0.75791
  Beta  occ. eigenvalues --   -0.75146  -0.71682  -0.69863  -0.69511  -0.68953
  Beta  occ. eigenvalues --   -0.68682  -0.67410  -0.65888  -0.65680  -0.65140
  Beta  occ. eigenvalues --   -0.64571  -0.64308  -0.63867  -0.60738  -0.60464
  Beta  occ. eigenvalues --   -0.60108  -0.57978  -0.57145  -0.57020  -0.56615
  Beta  occ. eigenvalues --   -0.55824  -0.54763  -0.54686  -0.54212  -0.53981
  Beta  occ. eigenvalues --   -0.53882  -0.53761  -0.53597  -0.52893  -0.52864
  Beta  occ. eigenvalues --   -0.52764  -0.51652  -0.50692  -0.50416  -0.50066
  Beta  occ. eigenvalues --   -0.50007  -0.49707  -0.48922  -0.48092  -0.47796
  Beta  occ. eigenvalues --   -0.47666  -0.47564  -0.47395  -0.47067  -0.46826
  Beta  occ. eigenvalues --   -0.46294  -0.46058  -0.45634  -0.45190  -0.44641
  Beta  occ. eigenvalues --   -0.44530  -0.43990  -0.42999  -0.42942  -0.42784
  Beta  occ. eigenvalues --   -0.42697  -0.41736  -0.41554  -0.41299  -0.39967
  Beta  occ. eigenvalues --   -0.39800  -0.39196  -0.39066  -0.38504  -0.38109
  Beta  occ. eigenvalues --   -0.37337  -0.36363  -0.35464  -0.34863  -0.34726
  Beta  occ. eigenvalues --   -0.34052  -0.31969  -0.31588  -0.31470  -0.30941
  Beta  occ. eigenvalues --   -0.30555  -0.30317  -0.29130  -0.28172  -0.26855
  Beta virt. eigenvalues --   -0.00588   0.01251   0.03168   0.04133   0.04247
  Beta virt. eigenvalues --    0.04551   0.06419   0.06441   0.06799   0.07233
  Beta virt. eigenvalues --    0.09333   0.11064   0.12677   0.12733   0.12836

 Mulliken charges and spin densities:
               1          2
     1  C   -0.035374   0.000000
     2  C    0.070015  -0.000000
     3  C    0.010145   0.000000
     4  C    0.079718  -0.000000
     5  N   -0.196410   0.000000
     6  C    0.089132  -0.000000
     7  C   -0.009934  -0.000000
     8  C    0.062706  -0.000000
     9  C    0.008588   0.000000
    10  C    0.018059   0.000000
    11  C   -0.033126   0.000000
    12  C    0.091447   0.000000
    13  O   -0.254784   0.000000
    14  C    0.065547   0.000000
    15  C   -0.050556  -0.000000
    16  C    0.067661   0.000000
    17  C    0.020939  -0.000000
    18  C    0.086407  -0.000000
    19  N   -0.196102  -0.000000
    20  C    0.087428   0.000000
    21  C   -0.013132   0.000000
    22  C    0.063484   0.000000
    23  C    0.008561  -0.000000
    24  C    0.016851  -0.000000
    25  C   -0.032113   0.000000
    26  C    0.090966  -0.000000
    27  O   -0.255390   0.000000
    28  C    0.065430   0.000000
    29  C   -0.050452  -0.000000
    30  C    0.067721   0.000000
    31  C    0.022671  -0.000000
    32  C    0.086926  -0.000000
    33  N   -0.195096   0.000000
    34  C    0.086973   0.000000
    35  C   -0.023027   0.000000
    36  C    0.052236   0.000000
    37  C    0.029213  -0.000000
    38  C    0.027143   0.000000
    39  C   -0.029231  -0.000000
    40  C    0.082707   0.000000
    41  O   -0.254125  -0.000000
    42  C    0.063957  -0.000000
    43  H   -0.011230  -0.000000
    44  H   -0.008450   0.000000
    45  H   -0.012815   0.000000
    46  H    0.000072   0.000000
    47  H   -0.023167   0.000000
    48  H   -0.028348   0.000000
    49  H   -0.020607  -0.000000
    50  H    0.049754  -0.000000
    51  H    0.046954  -0.000000
    52  H    0.050161  -0.000000
    53  H   -0.016291  -0.000000
    54  H   -0.014446   0.000000
    55  H   -0.006096  -0.000000
    56  H   -0.024627  -0.000000
    57  H   -0.028777  -0.000000
    58  H   -0.020394  -0.000000
    59  H    0.048328   0.000000
    60  H    0.049264  -0.000000
    61  H    0.050333  -0.000000
    62  H   -0.017793   0.000000
    63  H   -0.015177  -0.000000
    64  H   -0.005883  -0.000000
    65  H   -0.024332  -0.000000
    66  H   -0.020452  -0.000000
    67  H   -0.017776   0.000000
    68  H   -0.015058   0.000000
    69  H    0.049990   0.000000
    70  H    0.045768  -0.000000
    71  H    0.047315  -0.000000
 Sum of Mulliken charges =  -0.00000  -0.00000

 Dipole moment (field-independent basis, Debye):
    X=              0.2968    Y=              2.5590    Z=              1.5501  Tot=              3.0066
 Quadrupole moment (field-independent basis, Debye-Ang):
   XX=           -196.1320   YY=           -202.6544   ZZ=           -249.0669
   XY=              1.4230   XZ=              9.1056   YZ=              0.0473

 Normal termination of Gaussian 16 at Mon Jul 27 13:24:38 2020.
