 Gaussian 16, Revision A.03,
 Gaussian 16:  EM64L-G16RevA.03 25-Dec-2016

 ---------------------------------------------------------------
 #P uLC-wPBE/cc-pVDZ iop(3/107=0224600000, 3/108=0224600000) opt
 ---------------------------------------------------------------

 -------------
 H47 C65 O5 F5
 -------------
 Symbolic Z-matrix:
 Charge =  0 Multiplicity = 1

 SCF Done:  E(ULC-wPBE) =  -3377.66944140     A.U. after   17 cycles
 SCF Done:  E(ULC-wPBE) =  -3377.75724861     A.U. after   14 cycles
 SCF Done:  E(ULC-wPBE) =  -3377.83678790     A.U. after   16 cycles
 SCF Done:  E(ULC-wPBE) =  -3377.85603489     A.U. after   15 cycles
 SCF Done:  E(ULC-wPBE) =  -3377.86115870     A.U. after   15 cycles
 SCF Done:  E(ULC-wPBE) =  -3377.86278529     A.U. after   14 cycles
 SCF Done:  E(ULC-wPBE) =  -3377.85448950     A.U. after   17 cycles
 SCF Done:  E(ULC-wPBE) =  -3377.86211268     A.U. after   15 cycles
 SCF Done:  E(ULC-wPBE) =  -3377.86361164     A.U. after   12 cycles
 SCF Done:  E(ULC-wPBE) =  -3377.86375537     A.U. after   14 cycles
 SCF Done:  E(ULC-wPBE) =  -3377.86426295     A.U. after   13 cycles
 SCF Done:  E(ULC-wPBE) =  -3377.86435077     A.U. after   13 cycles
 SCF Done:  E(ULC-wPBE) =  -3377.86440682     A.U. after   11 cycles
 SCF Done:  E(ULC-wPBE) =  -3377.86440897     A.U. after   10 cycles
 SCF Done:  E(ULC-wPBE) =  -3377.86441024     A.U. after    7 cycles
 SCF Done:  E(ULC-wPBE) =  -3377.86441064     A.U. after    8 cycles
 SCF Done:  E(ULC-wPBE) =  -3377.86441063     A.U. after    6 cycles
 SCF Done:  E(ULC-wPBE) =  -3377.86441062     A.U. after    6 cycles
 Optimization completed.
    -- Stationary point found.

                         Standard orientation:
 ---------------------------------------------------------------------
 Center     Atomic      Atomic             Coordinates (Angstroms)
 Number     Number       Type             X           Y           Z
 ---------------------------------------------------------------------
      1          6           0       21.037211    0.358589    0.064136
      2          6           0       20.345790   -0.436613    0.979677
      3          6           0       18.953097   -0.434787    0.960121
      4          9           0       18.305873   -1.215723    1.860118
      5          6           0       18.203634    0.334767    0.058726
      6          6           0       18.930356    1.127734   -0.847348
      7          6           0       20.326255    1.140916   -0.851807
      8          6           0       16.714609    0.283988    0.055164
      9          6           0       16.039912   -0.942460    0.023017
     10          6           0       14.645852   -1.019824    0.006579
     11          6           0       13.876939    0.150914    0.027004
     12          6           0       14.535941    1.392304    0.066035
     13          6           0       15.934292    1.465759    0.080842
     14          8           0       16.626369    2.641839    0.134371
     15          6           0       15.883975    3.848019    0.210105
     16          6           0       12.389314    0.090636    0.008914
     17          6           0       11.642382    0.996837   -0.758307
     18          6           0       10.253110    0.924609   -0.761065
     19          9           0        9.579886    1.818453   -1.527425
     20          6           0        9.532478   -0.025959   -0.024789
     21          6           0       10.298627   -0.927345    0.735314
     22          6           0       11.691461   -0.873260    0.757796
     23          6           0        8.043714   -0.050016   -0.035648
     24          6           0        7.306768    1.120313    0.184487
     25          6           0        5.910581    1.125165    0.194026
     26          6           0        5.202322   -0.062768   -0.028444
     27          6           0        5.923931   -1.247012   -0.259213
     28          6           0        7.324277   -1.248697   -0.264232
     29          8           0        8.074760   -2.368925   -0.480489
     30          6           0        7.395100   -3.579744   -0.770076
     31          6           0        3.713186   -0.080558   -0.022275
     32          6           0        3.000945   -0.842044   -0.963023
     33          6           0        1.610803   -0.848951   -0.943361
     34          9           0        0.965571   -1.564107   -1.892132
     35          6           0        0.860120   -0.123800   -0.008510
     36          6           0        1.586850    0.637348    0.920857
     37          6           0        2.982536    0.663195    0.919572
     38          6           0       -0.627466   -0.116487   -0.024969
     39          6           0       -1.331392    1.088026   -0.122871
     40          6           0       -2.728508    1.126630   -0.123810
     41          6           0       -3.462199   -0.062654   -0.026082
     42          6           0       -2.769553   -1.282419    0.082889
     43          6           0       -1.370095   -1.315504    0.091065
     44          8           0       -0.636106   -2.453540    0.238923
     45          6           0       -1.329837   -3.688493    0.297945
     46          6           0       -4.951319   -0.048416   -0.035516
     47          6           0       -5.660044    0.939507    0.663837
     48          6           0       -7.050954    0.942368    0.642014
     49          9           0       -7.687767    1.913154    1.342401
     50          6           0       -7.810010   -0.008614   -0.054344
     51          6           0       -7.082033   -0.992141   -0.746735
     52          6           0       -5.688012   -1.014503   -0.743272
     53          6           0       -9.297736    0.050231   -0.074365
     54          6           0       -9.962508    1.244289   -0.380490
     55          6           0      -11.355670    1.325966   -0.421636
     56          6           0      -12.134351    0.195160   -0.143764
     57          6           0      -11.485891   -1.011264    0.173290
     58          6           0      -10.088242   -1.090441    0.208699
     59          8           0       -9.406604   -2.236257    0.506751
     60          6           0      -10.160115   -3.388403    0.847499
     61          6           0      -13.621725    0.258304   -0.178970
     62          6           0      -14.281124    0.974521   -1.188593
     63          6           0      -15.671374    1.024421   -1.208962
     64          9           0      -16.259904    1.722253   -2.211270
     65          6           0      -16.476379    0.386899   -0.254917
     66          6           0      -15.797236   -0.320453    0.752297
     67          6           0      -14.405280   -0.389945    0.791965
     68          6           0      -17.963417    0.441685   -0.331793
     69          6           0      -18.626541    0.124711   -1.524528
     70          6           0      -20.020933    0.155605   -1.621557
     71          6           0      -20.774030    0.517553   -0.505775
     72          6           0      -20.142280    0.846737    0.698432
     73          6           0      -18.743758    0.811085    0.791516
     74          8           0      -18.051885    1.124072    1.927392
     75          6           0      -18.792605    1.554175    3.057454
     76          1           0       22.134368    0.364670    0.067921
     77          1           0       20.862788   -1.062021    1.716692
     78          1           0       18.374398    1.744323   -1.562522
     79          1           0       20.862436    1.766250   -1.576117
     80          1           0       16.631369   -1.865283   -0.000846
     81          1           0       14.154236   -1.998309   -0.049758
     82          1           0       13.935677    2.306680    0.115036
     83          1           0       15.244704    3.996606   -0.684469
     84          1           0       15.248715    3.882873    1.118683
     85          1           0       16.629897    4.658181    0.259504
     86          1           0       12.126761    1.752524   -1.387826
     87          1           0        9.776007   -1.684396    1.330323
     88          1           0       12.249800   -1.576357    1.387784
     89          1           0        7.849977    2.058095    0.349685
     90          1           0        5.369363    2.065936    0.350127
     91          1           0        5.371471   -2.180045   -0.410956
     92          1           0        8.181498   -4.333248   -0.940392
     93          1           0        6.755280   -3.906957    0.075171
     94          1           0        6.771659   -3.491793   -1.683252
     95          1           0        3.515291   -1.411353   -1.746218
     96          1           0        1.031639    1.206909    1.677211
     97          1           0        3.515091    1.246370    1.680585
     98          1           0       -0.760812    2.020140   -0.225857
     99          1           0       -3.248982    2.085251   -0.236193
    100          1           0       -3.344610   -2.207000    0.198352
    101          1           0       -0.553796   -4.467104    0.379200
    102          1           0       -1.995223   -3.746053    1.183895
    103          1           0       -1.929034   -3.865974   -0.618466
    104          1           0       -5.144481    1.704250    1.256351
    105          1           0       -7.635413   -1.751821   -1.309790
    106          1           0       -5.159002   -1.780213   -1.323998
    107          1           0       -9.363809    2.138475   -0.589807
    108          1           0      -11.839587    2.283854   -0.647023
    109          1           0      -12.093791   -1.900759    0.367998
    110          1           0      -10.801110   -3.726768    0.007535
    111          1           0      -10.795463   -3.214189    1.739908
    112          1           0       -9.421927   -4.174242    1.077416
    113          1           0      -13.727072    1.485802   -1.984438
    114          1           0      -16.388067   -0.820983    1.527477
    115          1           0      -13.914898   -0.935916    1.607380
    116          1           0      -18.025767   -0.156404   -2.397682
    117          1           0      -20.512207   -0.102235   -2.567370
    118          1           0      -21.869686    0.548662   -0.561783
    119          1           0      -20.749433    1.133480    1.563236
    120          1           0      -19.480859    0.765420    3.425509
    121          1           0      -19.377115    2.471614    2.840277
    122          1           0      -18.048003    1.776948    3.839345
 ---------------------------------------------------------------------

 Alpha  occ. eigenvalues --  -10.03062 -10.03036 -10.03009 -10.02999 -10.02992
 Alpha  occ. eigenvalues --  -10.02965 -10.02955 -10.02946 -10.02883 -10.02781
 Alpha  occ. eigenvalues --  -10.02779 -10.02778 -10.02760 -10.02752 -10.02732
 Alpha  occ. eigenvalues --  -10.02707 -10.02703 -10.02665 -10.02638 -10.02632
 Alpha  occ. eigenvalues --  -10.02302 -10.02233 -10.02208 -10.02156 -10.02053
 Alpha  occ. eigenvalues --   -1.24218  -1.24207  -1.24126  -1.24110  -1.24080
 Alpha  occ. eigenvalues --   -1.11385  -1.11347  -1.11257  -1.11232  -1.11183
 Alpha  occ. eigenvalues --   -0.93256  -0.93085  -0.92877  -0.92593  -0.92078
 Alpha  occ. eigenvalues --   -0.91621  -0.91149  -0.90600  -0.90101  -0.89774
 Alpha  occ. eigenvalues --   -0.86583  -0.85855  -0.84925  -0.83867  -0.82778
 Alpha  occ. eigenvalues --   -0.81645  -0.81390  -0.81307  -0.81223  -0.81108
 Alpha  occ. eigenvalues --   -0.80855  -0.80475  -0.80386  -0.80331  -0.80284
 Alpha  occ. eigenvalues --   -0.80147  -0.79795  -0.78816  -0.78033  -0.77630
 Alpha  occ. eigenvalues --   -0.76179  -0.76112  -0.75800  -0.75370  -0.74747
 Alpha  occ. eigenvalues --   -0.71885  -0.70708  -0.69481  -0.68757  -0.68497
 Alpha  occ. eigenvalues --   -0.68290  -0.68033  -0.67947  -0.67623  -0.66892
 Alpha  occ. eigenvalues --   -0.66467  -0.66097  -0.65655  -0.65413  -0.65375
 Alpha  occ. eigenvalues --   -0.65109  -0.64824  -0.64432  -0.64264  -0.64085
 Alpha  occ. eigenvalues --   -0.61539  -0.61331  -0.61178  -0.60833  -0.60262
 Alpha  occ. eigenvalues --   -0.60018  -0.58700  -0.57969  -0.57749  -0.57356
 Alpha  occ. eigenvalues --   -0.57001  -0.56861  -0.56702  -0.56292  -0.55990
 Alpha  occ. eigenvalues --   -0.55729  -0.55562  -0.55415  -0.55199  -0.54979
 Alpha  occ. eigenvalues --   -0.54597  -0.54374  -0.54312  -0.54145  -0.54084
 Alpha  occ. eigenvalues --   -0.53834  -0.53713  -0.53705  -0.53611  -0.53464
 Alpha  occ. eigenvalues --   -0.53395  -0.53263  -0.52919  -0.52272  -0.52139
 Alpha  occ. eigenvalues --   -0.52080  -0.52028  -0.51969  -0.51434  -0.51349
 Alpha  occ. eigenvalues --   -0.50882  -0.50608  -0.50325  -0.50198  -0.49995
 Alpha  occ. eigenvalues --   -0.49790  -0.49723  -0.49639  -0.49374  -0.49282
 Alpha  occ. eigenvalues --   -0.48877  -0.48371  -0.48177  -0.48110  -0.48036
 Alpha  occ. eigenvalues --   -0.47956  -0.47469  -0.46738  -0.46417  -0.46333
 Alpha  occ. eigenvalues --   -0.46291  -0.46047  -0.45893  -0.45594  -0.45381
 Alpha  occ. eigenvalues --   -0.45203  -0.44915  -0.44773  -0.44552  -0.44403
 Alpha  occ. eigenvalues --   -0.44122  -0.44038  -0.43949  -0.43856  -0.43528
 Alpha  occ. eigenvalues --   -0.43418  -0.43024  -0.42889  -0.42807  -0.42640
 Alpha  occ. eigenvalues --   -0.42485  -0.42054  -0.41929  -0.41738  -0.41622
 Alpha  occ. eigenvalues --   -0.41465  -0.41340  -0.41178  -0.40946  -0.40898
 Alpha  occ. eigenvalues --   -0.40580  -0.39576  -0.39436  -0.39353  -0.39332
 Alpha  occ. eigenvalues --   -0.39265  -0.39211  -0.38869  -0.38628  -0.38231
 Alpha  occ. eigenvalues --   -0.38145  -0.36098  -0.35699  -0.34890  -0.34146
 Alpha  occ. eigenvalues --   -0.33006  -0.32504  -0.32002  -0.31970  -0.31897
 Alpha  occ. eigenvalues --   -0.31873  -0.31345  -0.30972  -0.30673  -0.30542
 Alpha  occ. eigenvalues --   -0.30493  -0.29257  -0.28856  -0.28295  -0.27474
 Alpha  occ. eigenvalues --   -0.27075
 Alpha virt. eigenvalues --    0.00211   0.00826   0.02030   0.03185   0.04874
 Alpha virt. eigenvalues --    0.05336   0.05563   0.05705   0.05762   0.05836
 Alpha virt. eigenvalues --    0.06197   0.06280   0.06353   0.06361   0.06415

  Beta  occ. eigenvalues --  -24.40525 -24.40503 -24.40417 -24.40383 -24.40322
  Beta  occ. eigenvalues --  -18.92837 -18.92789 -18.92697 -18.92631 -18.92578
  Beta  occ. eigenvalues --  -10.10374 -10.10372 -10.10348 -10.10300 -10.10228
  Beta  occ. eigenvalues --  -10.08895 -10.08886 -10.08802 -10.08772 -10.08675
  Beta  occ. eigenvalues --  -10.08375 -10.08289 -10.08207 -10.08204 -10.08118
  Beta  occ. eigenvalues --  -10.04392 -10.04349 -10.04313 -10.04307 -10.04151
  Beta  occ. eigenvalues --  -10.04135 -10.04134 -10.04116 -10.04111 -10.04085
  Beta  occ. eigenvalues --  -10.04057 -10.04046 -10.04040 -10.03771 -10.03768
  Beta  occ. eigenvalues --  -10.03700 -10.03670 -10.03620 -10.03422 -10.03351
  Beta  occ. eigenvalues --  -10.03249 -10.03195 -10.03190 -10.03121 -10.03091
  Beta  occ. eigenvalues --  -10.03062 -10.03036 -10.03009 -10.02999 -10.02992
  Beta  occ. eigenvalues --  -10.02965 -10.02955 -10.02946 -10.02883 -10.02781
  Beta  occ. eigenvalues --  -10.02779 -10.02778 -10.02760 -10.02752 -10.02732
  Beta  occ. eigenvalues --  -10.02707 -10.02703 -10.02665 -10.02638 -10.02632
  Beta  occ. eigenvalues --  -10.02302 -10.02233 -10.02208 -10.02156 -10.02053
  Beta  occ. eigenvalues --   -1.24218  -1.24207  -1.24126  -1.24110  -1.24080
  Beta  occ. eigenvalues --   -1.11385  -1.11347  -1.11257  -1.11232  -1.11183
  Beta  occ. eigenvalues --   -0.93256  -0.93085  -0.92877  -0.92593  -0.92078
  Beta  occ. eigenvalues --   -0.91621  -0.91149  -0.90600  -0.90101  -0.89774
  Beta  occ. eigenvalues --   -0.86583  -0.85855  -0.84925  -0.83867  -0.82778
  Beta  occ. eigenvalues --   -0.81645  -0.81390  -0.81307  -0.81223  -0.81108
  Beta  occ. eigenvalues --   -0.80855  -0.80475  -0.80386  -0.80331  -0.80284
  Beta  occ. eigenvalues --   -0.80147  -0.79795  -0.78816  -0.78033  -0.77630
  Beta  occ. eigenvalues --   -0.76179  -0.76112  -0.75800  -0.75370  -0.74747
  Beta  occ. eigenvalues --   -0.71885  -0.70708  -0.69481  -0.68757  -0.68497
  Beta  occ. eigenvalues --   -0.68290  -0.68033  -0.67947  -0.67623  -0.66892
  Beta  occ. eigenvalues --   -0.66467  -0.66097  -0.65655  -0.65413  -0.65375
  Beta  occ. eigenvalues --   -0.65109  -0.64824  -0.64432  -0.64264  -0.64085
  Beta  occ. eigenvalues --   -0.61539  -0.61331  -0.61178  -0.60833  -0.60262
  Beta  occ. eigenvalues --   -0.60018  -0.58700  -0.57969  -0.57749  -0.57356
  Beta  occ. eigenvalues --   -0.57001  -0.56861  -0.56702  -0.56292  -0.55990
  Beta  occ. eigenvalues --   -0.55729  -0.55562  -0.55415  -0.55199  -0.54979
  Beta  occ. eigenvalues --   -0.54597  -0.54374  -0.54312  -0.54145  -0.54084
  Beta  occ. eigenvalues --   -0.53834  -0.53713  -0.53705  -0.53611  -0.53464
  Beta  occ. eigenvalues --   -0.53395  -0.53263  -0.52919  -0.52272  -0.52139
  Beta  occ. eigenvalues --   -0.52080  -0.52028  -0.51969  -0.51434  -0.51349
  Beta  occ. eigenvalues --   -0.50882  -0.50608  -0.50325  -0.50198  -0.49995
  Beta  occ. eigenvalues --   -0.49790  -0.49723  -0.49639  -0.49374  -0.49282
  Beta  occ. eigenvalues --   -0.48877  -0.48371  -0.48177  -0.48110  -0.48036
  Beta  occ. eigenvalues --   -0.47956  -0.47469  -0.46738  -0.46417  -0.46333
  Beta  occ. eigenvalues --   -0.46291  -0.46047  -0.45893  -0.45594  -0.45381
  Beta  occ. eigenvalues --   -0.45203  -0.44915  -0.44773  -0.44552  -0.44403
  Beta  occ. eigenvalues --   -0.44122  -0.44038  -0.43949  -0.43856  -0.43528
  Beta  occ. eigenvalues --   -0.43418  -0.43024  -0.42889  -0.42807  -0.42640
  Beta  occ. eigenvalues --   -0.42485  -0.42054  -0.41929  -0.41738  -0.41622
  Beta  occ. eigenvalues --   -0.41465  -0.41340  -0.41178  -0.40946  -0.40898
  Beta  occ. eigenvalues --   -0.40580  -0.39576  -0.39436  -0.39353  -0.39332
  Beta  occ. eigenvalues --   -0.39265  -0.39211  -0.38869  -0.38628  -0.38231
  Beta  occ. eigenvalues --   -0.38145  -0.36098  -0.35699  -0.34890  -0.34146
  Beta  occ. eigenvalues --   -0.33006  -0.32504  -0.32002  -0.31970  -0.31897
  Beta  occ. eigenvalues --   -0.31873  -0.31345  -0.30972  -0.30673  -0.30542
  Beta  occ. eigenvalues --   -0.30493  -0.29257  -0.28856  -0.28295  -0.27474
  Beta  occ. eigenvalues --   -0.27075
  Beta virt. eigenvalues --    0.00211   0.00826   0.02030   0.03185   0.04874
  Beta virt. eigenvalues --    0.05336   0.05563   0.05705   0.05762   0.05836
  Beta virt. eigenvalues --    0.06197   0.06280   0.06353   0.06361   0.06415

 Mulliken charges and spin densities:
               1          2
     1  C    0.028003   0.000000
     2  C    0.011408  -0.000000
     3  C    0.089823  -0.000000
     4  F   -0.129241   0.000000
     5  C   -0.037310   0.000000
     6  C    0.045319  -0.000000
     7  C    0.023387   0.000000
     8  C   -0.011302   0.000000
     9  C    0.049694  -0.000000
    10  C    0.003998   0.000000
    11  C    0.018179  -0.000000
    12  C   -0.034624   0.000000
    13  C    0.107603  -0.000000
    14  O   -0.240221   0.000000
    15  C    0.063126  -0.000000
    16  C    0.022295  -0.000000
    17  C    0.001822   0.000000
    18  C    0.094880  -0.000000
    19  F   -0.128635   0.000000
    20  C   -0.028368   0.000000
    21  C    0.053446  -0.000000
    22  C    0.011596  -0.000000
    23  C   -0.014089   0.000000
    24  C    0.048775   0.000000
    25  C    0.004138  -0.000000
    26  C    0.016084   0.000000
    27  C   -0.033327  -0.000000
    28  C    0.108808   0.000000
    29  O   -0.240873  -0.000000
    30  C    0.063051   0.000000
    31  C    0.022409   0.000000
    32  C    0.000534  -0.000000
    33  C    0.122217   0.000000
    34  F   -0.124120   0.000000
    35  C   -0.037947   0.000000
    36  C    0.031570  -0.000000
    37  C    0.012322   0.000000
    38  C   -0.019552  -0.000000
    39  C    0.038361   0.000000
    40  C    0.004830   0.000000
    41  C    0.018782   0.000000
    42  C   -0.035201  -0.000000
    43  C    0.120807  -0.000000
    44  O   -0.235089  -0.000000
    45  C    0.063959  -0.000000
    46  C    0.021224  -0.000000
    47  C    0.004518  -0.000000
    48  C    0.095301   0.000000
    49  F   -0.127843   0.000000
    50  C   -0.028476  -0.000000
    51  C    0.053707  -0.000000
    52  C    0.009469   0.000000
    53  C   -0.014556  -0.000000
    54  C    0.049132  -0.000000
    55  C    0.005465   0.000000
    56  C    0.016158   0.000000
    57  C   -0.033429   0.000000
    58  C    0.107943  -0.000000
    59  O   -0.241509  -0.000000
    60  C    0.063444   0.000000
    61  C    0.019972  -0.000000
    62  C    0.004545   0.000000
    63  C    0.098656  -0.000000
    64  F   -0.127613   0.000000
    65  C   -0.029716   0.000000
    66  C    0.056262  -0.000000
    67  C    0.009065   0.000000
    68  C   -0.025097   0.000000
    69  C    0.038331  -0.000000
    70  C    0.022339   0.000000
    71  C    0.024955  -0.000000
    72  C   -0.033459   0.000000
    73  C    0.099880   0.000000
    74  O   -0.239791   0.000000
    75  C    0.060716   0.000000
    76  H   -0.010240  -0.000000
    77  H   -0.003057   0.000000
    78  H   -0.020988  -0.000000
    79  H   -0.015611   0.000000
    80  H   -0.022676   0.000000
    81  H   -0.026314  -0.000000
    82  H   -0.020137  -0.000000
    83  H    0.043294   0.000000
    84  H    0.048258   0.000000
    85  H    0.051388   0.000000
    86  H   -0.012840  -0.000000
    87  H   -0.020977  -0.000000
    88  H   -0.022083   0.000000
    89  H   -0.022991   0.000000
    90  H   -0.025932  -0.000000
    91  H   -0.019895  -0.000000
    92  H    0.051648  -0.000000
    93  H    0.046346  -0.000000
    94  H    0.045229   0.000000
    95  H   -0.012162   0.000000
    96  H   -0.019019   0.000000
    97  H   -0.021625   0.000000
    98  H   -0.025097   0.000000
    99  H   -0.024913  -0.000000
   100  H   -0.020076   0.000000
   101  H    0.050355   0.000000
   102  H    0.045666   0.000000
   103  H    0.044160   0.000000
   104  H   -0.010375   0.000000
   105  H   -0.021559   0.000000
   106  H   -0.024791   0.000000
   107  H   -0.021572  -0.000000
   108  H   -0.024394   0.000000
   109  H   -0.020749   0.000000
   110  H    0.046743  -0.000000
   111  H    0.044674  -0.000000
   112  H    0.050157   0.000000
   113  H   -0.010092  -0.000000
   114  H   -0.022067   0.000000
   115  H   -0.025911   0.000000
   116  H   -0.022389  -0.000000
   117  H   -0.019065   0.000000
   118  H   -0.015851  -0.000000
   119  H   -0.014355  -0.000000
   120  H    0.043098  -0.000000
   121  H    0.045730   0.000000
   122  H    0.052134  -0.000000
 Sum of Mulliken charges =  -0.00000   0.00000

 Dipole moment (field-independent basis, Debye):
    X=             -1.9719    Y=             -2.9619    Z=              2.2599  Tot=              4.2152
 Quadrupole moment (field-independent basis, Debye-Ang):
   XX=           -356.7199   YY=           -381.2998   ZZ=           -423.9635
   XY=             39.0782   XZ=            -44.5179   YZ=              2.3197

 Normal termination of Gaussian 16 at Fri Jul 24 17:06:57 2020.
