 Gaussian 16, Revision A.03,
 Gaussian 16:  EM64L-G16RevA.03 25-Dec-2016

 ---------------------------------------------------------------
 #P uLC-wPBE/cc-pVDZ iop(3/107=0141700000, 3/108=0141700000) opt
 ---------------------------------------------------------------

 ----------
 H38 C42 O6
 ----------
 Symbolic Z-matrix:
 Charge =  0 Multiplicity = 1

 SCF Done:  E(ULC-wPBE) =  -2072.59911504     A.U. after   16 cycles
 SCF Done:  E(ULC-wPBE) =  -2072.66897936     A.U. after   15 cycles
 SCF Done:  E(ULC-wPBE) =  -2072.71664256     A.U. after   16 cycles
 SCF Done:  E(ULC-wPBE) =  -2072.72997232     A.U. after   15 cycles
 SCF Done:  E(ULC-wPBE) =  -2072.73488060     A.U. after   15 cycles
 SCF Done:  E(ULC-wPBE) =  -2072.73618221     A.U. after   14 cycles
 SCF Done:  E(ULC-wPBE) =  -2072.73677773     A.U. after   14 cycles
 SCF Done:  E(ULC-wPBE) =  -2072.73693247     A.U. after   13 cycles
 SCF Done:  E(ULC-wPBE) =  -2072.73702362     A.U. after   12 cycles
 SCF Done:  E(ULC-wPBE) =  -2072.73715347     A.U. after   14 cycles
 SCF Done:  E(ULC-wPBE) =  -2072.73764430     A.U. after   11 cycles
 SCF Done:  E(ULC-wPBE) =  -2072.73772702     A.U. after   13 cycles
 SCF Done:  E(ULC-wPBE) =  -2072.73779780     A.U. after   12 cycles
 SCF Done:  E(ULC-wPBE) =  -2072.73781652     A.U. after   11 cycles
 SCF Done:  E(ULC-wPBE) =  -2072.73782348     A.U. after   11 cycles
 SCF Done:  E(ULC-wPBE) =  -2072.73782831     A.U. after   13 cycles
 SCF Done:  E(ULC-wPBE) =  -2072.73782877     A.U. after    7 cycles
 SCF Done:  E(ULC-wPBE) =  -2072.73782887     A.U. after    7 cycles
 SCF Done:  E(ULC-wPBE) =  -2072.73782886     A.U. after    6 cycles
 SCF Done:  E(ULC-wPBE) =  -2072.73782885     A.U. after    5 cycles
 Optimization completed.
    -- Stationary point found.

                         Standard orientation:
 ---------------------------------------------------------------------
 Center     Atomic      Atomic             Coordinates (Angstroms)
 Number     Number       Type             X           Y           Z
 ---------------------------------------------------------------------
      1          6           0      -12.262758   -0.219204    0.079766
      2          6           0      -11.567374   -0.667957   -1.052198
      3          6           0      -10.162138   -0.619122   -1.082450
      4          8           0       -9.411813   -1.032335   -2.152577
      5          6           0      -10.102219   -1.504927   -3.300868
      6          6           0       -9.436283   -0.115648    0.030880
      7          6           0      -10.165589    0.331932    1.145324
      8          6           0      -11.565563    0.282220    1.182737
      9          6           0       -7.944654   -0.081865    0.027702
     10          6           0       -7.192890   -1.240750   -0.225316
     11          6           0       -5.793902   -1.240612   -0.201732
     12          6           0       -5.089210   -0.055091    0.072748
     13          6           0       -5.826125    1.121128    0.321341
     14          6           0       -7.230310    1.115249    0.301137
     15          8           0       -7.992542    2.229020    0.540053
     16          6           0       -7.316492    3.456170    0.777571
     17          6           0       -3.601402   -0.028275    0.101770
     18          6           0       -2.882175   -1.106875    0.656650
     19          6           0       -1.478401   -1.102884    0.689133
     20          8           0       -0.734564   -2.118479    1.231709
     21          6           0       -1.430764   -3.217506    1.803484
     22          6           0       -0.745284   -0.005737    0.161520
     23          6           0       -1.480191    1.061554   -0.380907
     24          6           0       -2.878708    1.060066   -0.418426
     25          6           0        0.745295    0.005817    0.161494
     26          6           0        1.480161   -1.061408   -0.381129
     27          6           0        2.878674   -1.059930   -0.418694
     28          6           0        3.601372    0.028346    0.101636
     29          6           0        2.882200    1.106886    0.656683
     30          6           0        1.478419    1.102882    0.689248
     31          8           0        0.734605    2.118391    1.232011
     32          6           0        1.430837    3.217230    1.804104
     33          6           0        5.089186    0.055152    0.072588
     34          6           0        5.826086   -1.121027    0.321395
     35          6           0        7.230270   -1.115154    0.301196
     36          8           0        7.992517   -2.228868    0.540348
     37          6           0        7.316469   -3.455882    0.778568
     38          6           0        7.944627    0.081907    0.027569
     39          6           0        7.192864    1.240746   -0.225689
     40          6           0        5.793876    1.240623   -0.202120
     41          6           0        9.436237    0.115694    0.030802
     42          6           0       10.165505   -0.331690    1.145360
     43          6           0       11.565470   -0.281987    1.182844
     44          6           0       12.262741    0.219216    0.079815
     45          6           0       11.567399    0.667767   -1.052258
     46          6           0       10.162171    0.618955   -1.082570
     47          8           0        9.411907    1.031978   -2.152813
     48          6           0       10.102372    1.504473   -3.301117
     49          1           0      -13.361031   -0.266054    0.089108
     50          1           0      -12.128576   -1.054540   -1.911512
     51          1           0      -10.767225   -0.725812   -3.733551
     52          1           0      -10.707745   -2.411039   -3.078718
     53          1           0       -9.320359   -1.763578   -4.036903
     54          1           0       -9.608652    0.727464    2.004959
     55          1           0      -12.105700    0.634254    2.072088
     56          1           0       -7.731063   -2.169908   -0.454265
     57          1           0       -5.244155   -2.164180   -0.428828
     58          1           0       -5.281351    2.042261    0.560787
     59          1           0       -8.108330    4.213479    0.916685
     60          1           0       -6.687217    3.414005    1.693511
     61          1           0       -6.677398    3.749485   -0.083683
     62          1           0       -3.441938   -1.941732    1.095099
     63          1           0       -0.651608   -3.903005    2.181516
     64          1           0       -2.080130   -2.901502    2.648819
     65          1           0       -2.053620   -3.751315    1.052605
     66          1           0       -0.928192    1.914339   -0.797101
     67          1           0       -3.412738    1.898414   -0.886151
     68          1           0        0.928111   -1.914103   -0.797437
     69          1           0        3.412730   -1.898207   -0.886515
     70          1           0        3.442013    1.941687    1.095170
     71          1           0        2.080253    2.900944    2.649292
     72          1           0        2.053651    3.751285    1.053361
     73          1           0        0.651708    3.902618    2.182392
     74          1           0        5.281289   -2.042114    0.560969
     75          1           0        6.677440   -3.749732   -0.082554
     76          1           0        8.108314   -4.213087    0.918210
     77          1           0        6.687129   -3.413168    1.694437
     78          1           0        7.731049    2.169863   -0.454782
     79          1           0        5.244127    2.164145   -0.429398
     80          1           0        9.608529   -0.727040    2.005056
     81          1           0       12.105530   -0.633876    2.072297
     82          1           0       13.361011    0.266061    0.089181
     83          1           0       12.128632    1.054173   -1.911633
     84          1           0       10.767329    0.725286   -3.733747
     85          1           0       10.707957    2.410546   -3.078993
     86          1           0        9.320537    1.763142   -4.037170
 ---------------------------------------------------------------------

 The electronic state is 1-A.
 Alpha  occ. eigenvalues --  -18.87501 -18.87501 -18.87486 -18.87486 -18.87468
 Alpha  occ. eigenvalues --  -18.87468 -10.03144 -10.03143 -10.03127 -10.03126
 Alpha  occ. eigenvalues --  -10.03125 -10.03125 -10.03042 -10.03042 -10.03015
 Alpha  occ. eigenvalues --  -10.03015 -10.02982 -10.02982  -9.98445  -9.98445
 Alpha  occ. eigenvalues --   -9.98434  -9.98434  -9.98092  -9.98091  -9.98070
 Alpha  occ. eigenvalues --   -9.98058  -9.98037  -9.98037  -9.97636  -9.97636
 Alpha  occ. eigenvalues --   -9.97374  -9.97374  -9.97313  -9.97313  -9.97309
 Alpha  occ. eigenvalues --   -9.97309  -9.97282  -9.97282  -9.97202  -9.97202
 Alpha  occ. eigenvalues --   -9.97196  -9.97196  -9.96778  -9.96778  -9.96730
 Alpha  occ. eigenvalues --   -9.96730  -9.96727  -9.96727  -1.05527  -1.05516
 Alpha  occ. eigenvalues --   -1.05515  -1.05437  -1.05421  -1.05421  -0.86675
 Alpha  occ. eigenvalues --   -0.86336  -0.85655  -0.85073  -0.84211  -0.83488
 Alpha  occ. eigenvalues --   -0.80157  -0.78778  -0.77080  -0.76068  -0.75813
 Alpha  occ. eigenvalues --   -0.75764  -0.75139  -0.74974  -0.74851  -0.74491
 Alpha  occ. eigenvalues --   -0.73400  -0.72756  -0.70761  -0.70594  -0.70516
 Alpha  occ. eigenvalues --   -0.70367  -0.69977  -0.68926  -0.65525  -0.63557
 Alpha  occ. eigenvalues --   -0.62144  -0.61804  -0.61603  -0.61317  -0.60380
 Alpha  occ. eigenvalues --   -0.59975  -0.59682  -0.59305  -0.58973  -0.58663
 Alpha  occ. eigenvalues --   -0.56226  -0.55972  -0.55345  -0.55000  -0.53446
 Alpha  occ. eigenvalues --   -0.53046  -0.51709  -0.51493  -0.51251  -0.50607
 Alpha  occ. eigenvalues --   -0.50365  -0.50013  -0.49400  -0.49326  -0.49272
 Alpha  occ. eigenvalues --   -0.48818  -0.48809  -0.48805  -0.48784  -0.48776
 Alpha  occ. eigenvalues --   -0.48768  -0.48601  -0.48056  -0.46955  -0.46342
 Alpha  occ. eigenvalues --   -0.45905  -0.45879  -0.45870  -0.45834  -0.45594
 Alpha  occ. eigenvalues --   -0.44184  -0.43909  -0.43870  -0.43808  -0.43209
 Alpha  occ. eigenvalues --   -0.43126  -0.42784  -0.42072  -0.41517  -0.41516
 Alpha  occ. eigenvalues --   -0.40777  -0.40704  -0.40454  -0.40052  -0.39971
 Alpha  occ. eigenvalues --   -0.39348  -0.39034  -0.38994  -0.38717  -0.38550
 Alpha  occ. eigenvalues --   -0.38136  -0.37877  -0.37798  -0.37042  -0.37018
 Alpha  occ. eigenvalues --   -0.36441  -0.36210  -0.35802  -0.35671  -0.35345
 Alpha  occ. eigenvalues --   -0.34917  -0.34908  -0.34624  -0.34189  -0.34057
 Alpha  occ. eigenvalues --   -0.33948  -0.33555  -0.31308  -0.30432  -0.29203
 Alpha  occ. eigenvalues --   -0.28391  -0.27532  -0.27296  -0.26164  -0.26111
 Alpha  occ. eigenvalues --   -0.26038  -0.25296  -0.24422  -0.23410
 Alpha virt. eigenvalues --   -0.00288   0.01241   0.03394   0.04457   0.04743
 Alpha virt. eigenvalues --    0.04747   0.05094   0.05150   0.05180   0.05361
 Alpha virt. eigenvalues --    0.07012   0.08479   0.10747   0.10824   0.10920

  Beta  occ. eigenvalues --  -18.87501 -18.87501 -18.87486 -18.87486 -18.87468
  Beta  occ. eigenvalues --  -18.87468 -10.03144 -10.03143 -10.03127 -10.03126
  Beta  occ. eigenvalues --  -10.03125 -10.03125 -10.03042 -10.03042 -10.03015
  Beta  occ. eigenvalues --  -10.03015 -10.02982 -10.02982  -9.98445  -9.98445
  Beta  occ. eigenvalues --   -9.98434  -9.98434  -9.98092  -9.98091  -9.98070
  Beta  occ. eigenvalues --   -9.98058  -9.98037  -9.98037  -9.97636  -9.97636
  Beta  occ. eigenvalues --   -9.97374  -9.97374  -9.97313  -9.97313  -9.97309
  Beta  occ. eigenvalues --   -9.97309  -9.97282  -9.97282  -9.97202  -9.97202
  Beta  occ. eigenvalues --   -9.97196  -9.97196  -9.96778  -9.96778  -9.96730
  Beta  occ. eigenvalues --   -9.96730  -9.96727  -9.96727  -1.05527  -1.05516
  Beta  occ. eigenvalues --   -1.05515  -1.05437  -1.05421  -1.05421  -0.86675
  Beta  occ. eigenvalues --   -0.86336  -0.85655  -0.85073  -0.84211  -0.83488
  Beta  occ. eigenvalues --   -0.80157  -0.78778  -0.77080  -0.76068  -0.75813
  Beta  occ. eigenvalues --   -0.75764  -0.75139  -0.74974  -0.74851  -0.74491
  Beta  occ. eigenvalues --   -0.73400  -0.72756  -0.70761  -0.70594  -0.70516
  Beta  occ. eigenvalues --   -0.70367  -0.69977  -0.68926  -0.65525  -0.63557
  Beta  occ. eigenvalues --   -0.62144  -0.61804  -0.61603  -0.61317  -0.60380
  Beta  occ. eigenvalues --   -0.59975  -0.59682  -0.59305  -0.58973  -0.58663
  Beta  occ. eigenvalues --   -0.56226  -0.55972  -0.55345  -0.55000  -0.53446
  Beta  occ. eigenvalues --   -0.53046  -0.51709  -0.51493  -0.51251  -0.50607
  Beta  occ. eigenvalues --   -0.50365  -0.50013  -0.49400  -0.49326  -0.49272
  Beta  occ. eigenvalues --   -0.48818  -0.48809  -0.48805  -0.48784  -0.48776
  Beta  occ. eigenvalues --   -0.48768  -0.48601  -0.48056  -0.46955  -0.46342
  Beta  occ. eigenvalues --   -0.45905  -0.45879  -0.45870  -0.45834  -0.45594
  Beta  occ. eigenvalues --   -0.44184  -0.43909  -0.43870  -0.43808  -0.43209
  Beta  occ. eigenvalues --   -0.43126  -0.42784  -0.42072  -0.41517  -0.41516
  Beta  occ. eigenvalues --   -0.40777  -0.40704  -0.40454  -0.40052  -0.39971
  Beta  occ. eigenvalues --   -0.39348  -0.39034  -0.38994  -0.38717  -0.38550
  Beta  occ. eigenvalues --   -0.38136  -0.37877  -0.37798  -0.37042  -0.37018
  Beta  occ. eigenvalues --   -0.36441  -0.36210  -0.35802  -0.35671  -0.35345
  Beta  occ. eigenvalues --   -0.34917  -0.34908  -0.34624  -0.34189  -0.34057
  Beta  occ. eigenvalues --   -0.33948  -0.33555  -0.31308  -0.30432  -0.29203
  Beta  occ. eigenvalues --   -0.28391  -0.27532  -0.27296  -0.26164  -0.26111
  Beta  occ. eigenvalues --   -0.26038  -0.25296  -0.24422  -0.23410
  Beta virt. eigenvalues --   -0.00288   0.01241   0.03394   0.04457   0.04743
  Beta virt. eigenvalues --    0.04747   0.05094   0.05150   0.05180   0.05361
  Beta virt. eigenvalues --    0.07012   0.08479   0.10747   0.10824   0.10920

 Mulliken charges and spin densities:
               1          2
     1  C    0.025489   0.000000
     2  C   -0.029009   0.000000
     3  C    0.091326   0.000000
     4  O   -0.232969   0.000000
     5  C    0.063643  -0.000000
     6  C   -0.014118   0.000000
     7  C    0.050335   0.000000
     8  C    0.025546  -0.000000
     9  C   -0.000836   0.000000
    10  C    0.060814  -0.000000
    11  C    0.000647  -0.000000
    12  C    0.022718   0.000000
    13  C   -0.034931  -0.000000
    14  C    0.098892  -0.000000
    15  O   -0.234708  -0.000000
    16  C    0.066587  -0.000000
    17  C    0.024691  -0.000000
    18  C   -0.034766   0.000000
    19  C    0.095503  -0.000000
    20  O   -0.235689   0.000000
    21  C    0.066952  -0.000000
    22  C    0.000957  -0.000000
    23  C    0.058118  -0.000000
    24  C    0.001118   0.000000
    25  C    0.000950   0.000000
    26  C    0.058123   0.000000
    27  C    0.001145  -0.000000
    28  C    0.024652   0.000000
    29  C   -0.034744  -0.000000
    30  C    0.095503   0.000000
    31  O   -0.235685   0.000000
    32  C    0.066953  -0.000000
    33  C    0.022683   0.000000
    34  C   -0.034911   0.000000
    35  C    0.098891  -0.000000
    36  O   -0.234706   0.000000
    37  C    0.066587   0.000000
    38  C   -0.000828   0.000000
    39  C    0.060805   0.000000
    40  C    0.000665  -0.000000
    41  C   -0.014110  -0.000000
    42  C    0.050331   0.000000
    43  C    0.025549  -0.000000
    44  C    0.025493  -0.000000
    45  C   -0.029009   0.000000
    46  C    0.091319  -0.000000
    47  O   -0.232972  -0.000000
    48  C    0.063644   0.000000
    49  H   -0.025029   0.000000
    50  H   -0.024045   0.000000
    51  H    0.042049   0.000000
    52  H    0.040557   0.000000
    53  H    0.048189  -0.000000
    54  H   -0.036763   0.000000
    55  H   -0.028830   0.000000
    56  H   -0.038630  -0.000000
    57  H   -0.038726   0.000000
    58  H   -0.030776   0.000000
    59  H    0.046442   0.000000
    60  H    0.043563  -0.000000
    61  H    0.041510  -0.000000
    62  H   -0.030522   0.000000
    63  H    0.045546  -0.000000
    64  H    0.045259   0.000000
    65  H    0.040509  -0.000000
    66  H   -0.038333   0.000000
    67  H   -0.038284   0.000000
    68  H   -0.038331  -0.000000
    69  H   -0.038284   0.000000
    70  H   -0.030525   0.000000
    71  H    0.045258  -0.000000
    72  H    0.040509   0.000000
    73  H    0.045547   0.000000
    74  H   -0.030780   0.000000
    75  H    0.041511   0.000000
    76  H    0.046441  -0.000000
    77  H    0.043562  -0.000000
    78  H   -0.038630  -0.000000
    79  H   -0.038727  -0.000000
    80  H   -0.036768  -0.000000
    81  H   -0.028830  -0.000000
    82  H   -0.025030   0.000000
    83  H   -0.024045  -0.000000
    84  H    0.042049   0.000000
    85  H    0.040559   0.000000
    86  H    0.048189  -0.000000
 Sum of Mulliken charges =  -0.00000  -0.00000

 Dipole moment (field-independent basis, Debye):
    X=              0.0001    Y=             -0.0001    Z=             -0.6845  Tot=              0.6845
 Quadrupole moment (field-independent basis, Debye-Ang):
   XX=           -254.5600   YY=           -243.1987   ZZ=           -262.6744
   XY=              2.8057   XZ=              0.0052   YZ=             -0.0009

 Normal termination of Gaussian 16 at Sat Jul 25 19:08:45 2020.
