 Gaussian 16, Revision A.03,
 Gaussian 16:  EM64L-G16RevA.03 25-Dec-2016

 ---------------------------------------------------------------
 #P uLC-wPBE/cc-pVDZ iop(3/107=0356000000, 3/108=0356000000) opt
 ---------------------------------------------------------------

 -------------
 H14 C30 S3 F6
 -------------
 Symbolic Z-matrix:
 Charge =  0 Multiplicity = 1

 SCF Done:  E(ULC-wPBE) =  -2943.63510476     A.U. after   16 cycles
 SCF Done:  E(ULC-wPBE) =  -2943.68705963     A.U. after   15 cycles
 SCF Done:  E(ULC-wPBE) =  -2943.71925303     A.U. after   15 cycles
 SCF Done:  E(ULC-wPBE) =  -2943.72114310     A.U. after   13 cycles
 SCF Done:  E(ULC-wPBE) =  -2943.72200226     A.U. after   13 cycles
 SCF Done:  E(ULC-wPBE) =  -2943.72231345     A.U. after   14 cycles
 SCF Done:  E(ULC-wPBE) =  -2943.72298326     A.U. after   13 cycles
 SCF Done:  E(ULC-wPBE) =  -2943.72315173     A.U. after   13 cycles
 SCF Done:  E(ULC-wPBE) =  -2943.72323660     A.U. after   12 cycles
 SCF Done:  E(ULC-wPBE) =  -2943.72328142     A.U. after   12 cycles
 SCF Done:  E(ULC-wPBE) =  -2943.72331145     A.U. after   11 cycles
 SCF Done:  E(ULC-wPBE) =  -2943.72332927     A.U. after   11 cycles
 SCF Done:  E(ULC-wPBE) =  -2943.72334102     A.U. after   11 cycles
 SCF Done:  E(ULC-wPBE) =  -2943.72334708     A.U. after   11 cycles
 SCF Done:  E(ULC-wPBE) =  -2943.72334875     A.U. after   11 cycles
 SCF Done:  E(ULC-wPBE) =  -2943.72334921     A.U. after    9 cycles
 SCF Done:  E(ULC-wPBE) =  -2943.72334938     A.U. after    8 cycles
 SCF Done:  E(ULC-wPBE) =  -2943.72334945     A.U. after    8 cycles
 SCF Done:  E(ULC-wPBE) =  -2943.72334949     A.U. after    8 cycles
 Optimization completed.
    -- Stationary point found.

                         Standard orientation:
 ---------------------------------------------------------------------
 Center     Atomic      Atomic             Coordinates (Angstroms)
 Number     Number       Type             X           Y           Z
 ---------------------------------------------------------------------
      1          6           0      -10.987165   -2.334373   -0.468232
      2          6           0      -11.009991   -0.950579   -0.613286
      3          6           0       -9.844525   -0.210604   -0.465724
      4          6           0       -8.619184   -0.824404   -0.165236
      5          6           0       -8.639845   -2.214749   -0.033812
      6          9           0       -7.489259   -2.863146    0.240486
      7          6           0       -9.788509   -2.972692   -0.177936
      8          6           0       -7.387791   -0.035883    0.004056
      9          6           0       -7.274428    1.306029    0.263314
     10          9           0       -8.327419    2.115868    0.460627
     11          6           0       -5.955815    1.812818    0.325303
     12          6           0       -5.031291    0.828526    0.105788
     13         16           0       -5.792012   -0.694319   -0.168465
     14          6           0       -3.564597    0.957346    0.098747
     15          6           0       -2.956210    2.151754   -0.301705
     16          6           0       -1.577174    2.285265   -0.301269
     17          6           0       -0.731695    1.236489    0.092119
     18          6           0       -1.370076    0.054517    0.473923
     19          9           0       -0.622085   -0.999476    0.856080
     20          6           0       -2.742894   -0.101146    0.487840
     21          6           0        0.730865    1.384751    0.099232
     22          6           0        1.461777    2.545340    0.061416
     23          9           0        0.911330    3.770254    0.061660
     24          6           0        2.866309    2.388823    0.031767
     25          6           0        3.222205    1.067904    0.046987
     26         16           0        1.835154    0.045728    0.099029
     27          6           0        4.581540    0.499900    0.034231
     28          6           0        4.874099   -0.712139    0.668420
     29          6           0        6.164688   -1.220101    0.654893
     30          6           0        7.210772   -0.548646    0.014627
     31          6           0        6.890817    0.652462   -0.619910
     32          9           0        7.848360    1.316888   -1.282316
     33          6           0        5.612322    1.179309   -0.618786
     34          6           0        8.579495   -1.084889   -0.013606
     35          6           0        9.757398   -0.438701    0.235828
     36          9           0        9.826451    0.855373    0.562244
     37          6           0       10.918603   -1.253242    0.155461
     38          6           0       10.592873   -2.537612   -0.159506
     39         16           0        8.903338   -2.748686   -0.361858
     40          1           0      -11.901534   -2.920806   -0.584823
     41          1           0      -11.945383   -0.437677   -0.848029
     42          1           0       -9.875377    0.871935   -0.586548
     43          1           0       -9.718466   -4.055449   -0.058226
     44          1           0       -5.725729    2.852208    0.557047
     45          1           0       -3.572656    2.986065   -0.642689
     46          1           0       -1.134631    3.226211   -0.626015
     47          1           0       -3.150816   -1.056271    0.825538
     48          1           0        3.561093    3.228084    0.033629
     49          1           0        4.088411   -1.252595    1.201669
     50          1           0        6.381510   -2.158733    1.171188
     51          1           0        5.432412    2.109783   -1.160160
     52          1           0       11.928534   -0.884348    0.331781
     53          1           0       11.267106   -3.382641   -0.292333
 ---------------------------------------------------------------------

 The electronic state is 1-A.
 Alpha  occ. eigenvalues --  -88.31049 -88.30903 -88.30846 -24.49505 -24.49347
 Alpha  occ. eigenvalues --  -24.49223 -24.48882 -24.48544 -24.48421 -10.19571
 Alpha  occ. eigenvalues --  -10.19406 -10.19230 -10.19003 -10.18963 -10.18632
 Alpha  occ. eigenvalues --  -10.15090 -10.14907 -10.14760 -10.14502 -10.14077
 Alpha  occ. eigenvalues --  -10.14002 -10.13857 -10.13850 -10.13752 -10.13422
 Alpha  occ. eigenvalues --  -10.13383 -10.12245 -10.11970 -10.11859 -10.11793
 Alpha  occ. eigenvalues --  -10.11684 -10.11576 -10.11573 -10.11521 -10.11495
 Alpha  occ. eigenvalues --  -10.11480 -10.11428 -10.11268 -10.10839  -7.91673
 Alpha  occ. eigenvalues --   -7.91566  -7.91475  -5.93374  -5.93248  -5.93174
 Alpha  occ. eigenvalues --   -5.92840  -5.92732  -5.92642  -5.92399  -5.92307
 Alpha  occ. eigenvalues --   -5.92201  -1.33869  -1.33823  -1.33583  -1.33380
 Alpha  occ. eigenvalues --   -1.33322  -1.32809  -1.04696  -1.04350  -1.03749
 Alpha  occ. eigenvalues --   -1.01607  -1.00846  -1.00254  -0.94757  -0.93151
 Alpha  occ. eigenvalues --   -0.91431  -0.89395  -0.89267  -0.88429  -0.88187
 Alpha  occ. eigenvalues --   -0.87687  -0.87337  -0.87077  -0.85240  -0.83268
 Alpha  occ. eigenvalues --   -0.78247  -0.77306  -0.76124  -0.75610  -0.74861
 Alpha  occ. eigenvalues --   -0.74132  -0.71290  -0.70944  -0.70659  -0.69979
 Alpha  occ. eigenvalues --   -0.69878  -0.69529  -0.67567  -0.67141  -0.66570
 Alpha  occ. eigenvalues --   -0.65231  -0.63858  -0.63304  -0.62626  -0.62015
 Alpha  occ. eigenvalues --   -0.61215  -0.60407  -0.60192  -0.60109  -0.59728
 Alpha  occ. eigenvalues --   -0.59693  -0.59278  -0.59061  -0.58674  -0.58449
 Alpha  occ. eigenvalues --   -0.58119  -0.57505  -0.57230  -0.56685  -0.55837
 Alpha  occ. eigenvalues --   -0.55535  -0.55196  -0.54644  -0.54158  -0.53732
 Alpha  occ. eigenvalues --   -0.52867  -0.52363  -0.52197  -0.51636  -0.51126
 Alpha  occ. eigenvalues --   -0.50472  -0.50173  -0.50002  -0.49654  -0.49324
 Alpha  occ. eigenvalues --   -0.49206  -0.48440  -0.48340  -0.47694  -0.47630
 Alpha  occ. eigenvalues --   -0.46771  -0.46578  -0.46097  -0.45644  -0.44740
 Alpha  occ. eigenvalues --   -0.44361  -0.42341  -0.40101  -0.38129  -0.36398
 Alpha  occ. eigenvalues --   -0.36328  -0.35894  -0.35725  -0.35580  -0.35472
 Alpha  occ. eigenvalues --   -0.33722  -0.31605  -0.29278
 Alpha virt. eigenvalues --   -0.01005   0.01607   0.04450   0.05863   0.06018
 Alpha virt. eigenvalues --    0.06478   0.07112   0.09125   0.11130   0.11848
 Alpha virt. eigenvalues --    0.12106   0.12248   0.14608   0.14704   0.14903

  Beta  occ. eigenvalues --  -88.31049 -88.30903 -88.30846 -24.49505 -24.49347
  Beta  occ. eigenvalues --  -24.49223 -24.48882 -24.48544 -24.48421 -10.19571
  Beta  occ. eigenvalues --  -10.19406 -10.19230 -10.19003 -10.18963 -10.18632
  Beta  occ. eigenvalues --  -10.15090 -10.14907 -10.14760 -10.14502 -10.14077
  Beta  occ. eigenvalues --  -10.14002 -10.13857 -10.13850 -10.13752 -10.13422
  Beta  occ. eigenvalues --  -10.13383 -10.12245 -10.11970 -10.11859 -10.11793
  Beta  occ. eigenvalues --  -10.11684 -10.11576 -10.11573 -10.11521 -10.11495
  Beta  occ. eigenvalues --  -10.11480 -10.11428 -10.11268 -10.10839  -7.91673
  Beta  occ. eigenvalues --   -7.91566  -7.91475  -5.93374  -5.93248  -5.93174
  Beta  occ. eigenvalues --   -5.92840  -5.92732  -5.92642  -5.92399  -5.92307
  Beta  occ. eigenvalues --   -5.92201  -1.33869  -1.33823  -1.33583  -1.33380
  Beta  occ. eigenvalues --   -1.33322  -1.32809  -1.04696  -1.04350  -1.03749
  Beta  occ. eigenvalues --   -1.01607  -1.00846  -1.00254  -0.94757  -0.93151
  Beta  occ. eigenvalues --   -0.91431  -0.89395  -0.89267  -0.88429  -0.88187
  Beta  occ. eigenvalues --   -0.87687  -0.87337  -0.87077  -0.85240  -0.83268
  Beta  occ. eigenvalues --   -0.78247  -0.77306  -0.76124  -0.75610  -0.74861
  Beta  occ. eigenvalues --   -0.74132  -0.71290  -0.70944  -0.70659  -0.69979
  Beta  occ. eigenvalues --   -0.69878  -0.69529  -0.67567  -0.67141  -0.66570
  Beta  occ. eigenvalues --   -0.65231  -0.63858  -0.63304  -0.62626  -0.62015
  Beta  occ. eigenvalues --   -0.61215  -0.60407  -0.60192  -0.60109  -0.59728
  Beta  occ. eigenvalues --   -0.59693  -0.59278  -0.59061  -0.58674  -0.58449
  Beta  occ. eigenvalues --   -0.58119  -0.57505  -0.57230  -0.56685  -0.55837
  Beta  occ. eigenvalues --   -0.55535  -0.55196  -0.54644  -0.54158  -0.53732
  Beta  occ. eigenvalues --   -0.52867  -0.52363  -0.52197  -0.51636  -0.51126
  Beta  occ. eigenvalues --   -0.50472  -0.50173  -0.50002  -0.49654  -0.49324
  Beta  occ. eigenvalues --   -0.49206  -0.48440  -0.48340  -0.47694  -0.47630
  Beta  occ. eigenvalues --   -0.46771  -0.46578  -0.46097  -0.45644  -0.44740
  Beta  occ. eigenvalues --   -0.44361  -0.42341  -0.40101  -0.38129  -0.36398
  Beta  occ. eigenvalues --   -0.36328  -0.35894  -0.35725  -0.35580  -0.35472
  Beta  occ. eigenvalues --   -0.33722  -0.31605  -0.29278
  Beta virt. eigenvalues --   -0.01005   0.01607   0.04450   0.05863   0.06018
  Beta virt. eigenvalues --    0.06478   0.07112   0.09125   0.11130   0.11848
  Beta virt. eigenvalues --    0.12106   0.12248   0.14608   0.14704   0.14903

 Mulliken charges and spin densities:
               1          2
     1  C    0.018557  -0.000000
     2  C    0.020573   0.000000
     3  C   -0.013301  -0.000000
     4  C    0.001119   0.000000
     5  C    0.083346  -0.000000
     6  F   -0.129590   0.000000
     7  C    0.011094  -0.000000
     8  C   -0.166063  -0.000000
     9  C    0.123448   0.000000
    10  F   -0.126184   0.000000
    11  C    0.028513  -0.000000
    12  C   -0.153847   0.000000
    13  S    0.196350   0.000000
    14  C    0.058289  -0.000000
    15  C    0.007715   0.000000
    16  C   -0.002332  -0.000000
    17  C    0.014748  -0.000000
    18  C    0.088617   0.000000
    19  F   -0.126139   0.000000
    20  C    0.005103  -0.000000
    21  C   -0.167176   0.000000
    22  C    0.119549   0.000000
    23  F   -0.125805  -0.000000
    24  C    0.033255  -0.000000
    25  C   -0.156543   0.000000
    26  S    0.197384   0.000000
    27  C    0.055774  -0.000000
    28  C   -0.001246   0.000000
    29  C    0.029142  -0.000000
    30  C   -0.013346  -0.000000
    31  C    0.117538   0.000000
    32  F   -0.114424  -0.000000
    33  C   -0.008382   0.000000
    34  C   -0.208803   0.000000
    35  C    0.132417   0.000000
    36  F   -0.115842  -0.000000
    37  C    0.037480  -0.000000
    38  C   -0.131686   0.000000
    39  S    0.179795   0.000000
    40  H    0.008920  -0.000000
    41  H    0.004835   0.000000
    42  H    0.011104  -0.000000
    43  H    0.018345   0.000000
    44  H    0.015107  -0.000000
    45  H   -0.002767   0.000000
    46  H    0.013086  -0.000000
    47  H    0.021373   0.000000
    48  H    0.016552   0.000000
    49  H    0.008964   0.000000
    50  H    0.007399  -0.000000
    51  H    0.011613   0.000000
    52  H    0.020624  -0.000000
    53  H    0.045753   0.000000
 Sum of Mulliken charges =  -0.00000  -0.00000

 Dipole moment (field-independent basis, Debye):
    X=             -0.4081    Y=             -0.9831    Z=             -0.2822  Tot=              1.1012
 Quadrupole moment (field-independent basis, Debye-Ang):
   XX=           -190.2958   YY=           -221.9528   ZZ=           -243.2556
   XY=            -11.4478   XZ=              7.1777   YZ=             -3.0857

 Normal termination of Gaussian 16 at Sat Jul 25 10:22:42 2020.
