 Gaussian 16, Revision A.03,
 Gaussian 16:  EM64L-G16RevA.03 25-Dec-2016

 ---------------------------------------------------------------
 #P uLC-wPBE/cc-pVDZ iop(3/107=0255000000, 3/108=0255000000) opt
 ---------------------------------------------------------------

 -----------------
 H17 C45 S5 N5 F10
 -----------------
 Symbolic Z-matrix:
 Charge =  0 Multiplicity = 1

 SCF Done:  E(ULC-wPBE) =  -4985.22781817     A.U. after   17 cycles
 SCF Done:  E(ULC-wPBE) =  -4985.29438814     A.U. after   14 cycles
 SCF Done:  E(ULC-wPBE) =  -4985.34523344     A.U. after   16 cycles
 SCF Done:  E(ULC-wPBE) =  -4985.34858358     A.U. after   13 cycles
 SCF Done:  E(ULC-wPBE) =  -4985.35019310     A.U. after   13 cycles
 SCF Done:  E(ULC-wPBE) =  -4985.35167637     A.U. after   14 cycles
 SCF Done:  E(ULC-wPBE) =  -4985.35260900     A.U. after   13 cycles
 SCF Done:  E(ULC-wPBE) =  -4985.35325502     A.U. after   14 cycles
 SCF Done:  E(ULC-wPBE) =  -4985.35344152     A.U. after   13 cycles
 SCF Done:  E(ULC-wPBE) =  -4985.35356453     A.U. after   14 cycles
 SCF Done:  E(ULC-wPBE) =  -4985.35375833     A.U. after   10 cycles
 SCF Done:  E(ULC-wPBE) =  -4985.35375858     A.U. after   11 cycles
 SCF Done:  E(ULC-wPBE) =  -4985.35375875     A.U. after    8 cycles
 SCF Done:  E(ULC-wPBE) =  -4985.35375870     A.U. after    7 cycles
 SCF Done:  E(ULC-wPBE) =  -4985.35375876     A.U. after    7 cycles
 SCF Done:  E(ULC-wPBE) =  -4985.35375865     A.U. after    7 cycles
 SCF Done:  E(ULC-wPBE) =  -4985.35375875     A.U. after    7 cycles
 SCF Done:  E(ULC-wPBE) =  -4985.35375872     A.U. after    7 cycles
 SCF Done:  E(ULC-wPBE) =  -4985.35375864     A.U. after    6 cycles
 SCF Done:  E(ULC-wPBE) =  -4985.35375870     A.U. after    6 cycles
 Optimization completed.
    -- Stationary point found.

                         Standard orientation:
 ---------------------------------------------------------------------
 Center     Atomic      Atomic             Coordinates (Angstroms)
 Number     Number       Type             X           Y           Z
 ---------------------------------------------------------------------
      1          6           0      -19.242860   -1.754771    0.087895
      2          6           0      -18.602952   -0.516223    0.059762
      3          6           0      -17.218900   -0.481714    0.156951
      4          9           0      -16.613829    0.726644    0.117843
      5          6           0      -16.414041   -1.625315    0.290260
      6          6           0      -17.111620   -2.849783    0.302628
      7          9           0      -16.432674   -3.999309    0.393197
      8          6           0      -18.497624   -2.926449    0.205937
      9          6           0      -14.945618   -1.562063    0.421173
     10          7           0      -14.220560   -2.536472    0.917446
     11          6           0      -12.892781   -2.224811    0.881576
     12          6           0      -12.559298   -0.999246    0.350426
     13         16           0      -14.011923   -0.183642   -0.121892
     14          6           0      -11.223191   -0.400664    0.201286
     15          6           0      -10.097342   -1.224218    0.053942
     16          6           0       -8.844182   -0.646145   -0.065871
     17          9           0       -7.786536   -1.477185   -0.198736
     18          6           0       -8.607272    0.738566   -0.068514
     19          6           0       -9.764690    1.528348    0.083010
     20          9           0       -9.659764    2.860630    0.126506
     21          6           0      -11.037832    0.988533    0.216088
     22          6           0       -7.266516    1.328678   -0.229935
     23          7           0       -7.062634    2.587222   -0.541041
     24          6           0       -5.729200    2.870102   -0.588801
     25          6           0       -4.866890    1.833500   -0.310862
     26         16           0       -5.795464    0.410151    0.021288
     27          6           0       -3.395369    1.847450   -0.302664
     28          6           0       -2.705903    3.032723   -0.010190
     29          6           0       -1.317311    3.056993   -0.022764
     30          9           0       -0.725015    4.216057    0.284207
     31          6           0       -0.530728    1.923547   -0.312516
     32          6           0       -1.267113    0.757877   -0.579444
     33          9           0       -0.590425   -0.379137   -0.853617
     34          6           0       -2.651307    0.693490   -0.587059
     35          6           0        0.942038    1.972793   -0.337980
     36          7           0        1.626965    3.090512   -0.402140
     37          6           0        2.968267    2.844520   -0.375340
     38          6           0        3.353576    1.525814   -0.285704
     39         16           0        1.935767    0.532862   -0.243190
     40          6           0        4.716924    0.972618   -0.251532
     41          6           0        4.999842   -0.308577   -0.744245
     42          6           0        6.297717   -0.803170   -0.709376
     43          9           0        6.497906   -2.024681   -1.215283
     44          6           0        7.385831   -0.070682   -0.193833
     45          6           0        7.052560    1.210180    0.277260
     46          9           0        8.038686    1.983822    0.782591
     47          6           0        5.771202    1.736763    0.269671
     48          6           0        8.753211   -0.618885   -0.145428
     49          7           0        9.026676   -1.894147   -0.291413
     50          6           0       10.371687   -2.115441   -0.237305
     51          6           0       11.173226   -1.011720   -0.051420
     52         16           0       10.167623    0.392057    0.073096
     53          6           0       12.640172   -0.954049    0.057438
     54          6           0       13.279055    0.039335    0.811808
     55          6           0       14.665230    0.064865    0.905927
     56          9           0       15.208057    1.026557    1.660875
     57          6           0       15.496121   -0.878548    0.270936
     58          6           0       14.808949   -1.859338   -0.462218
     59          9           0       15.530567   -2.809259   -1.096652
     60          6           0       13.429993   -1.915244   -0.589734
     61          6           0       16.967481   -0.820081    0.362962
     62          7           0       17.625959    0.260658    0.705826
     63          6           0       18.973264    0.021135    0.745574
     64          6           0       19.364508   -1.254352    0.437155
     65         16           0       17.989546   -2.212862    0.061157
     66          1           0      -20.334569   -1.807128    0.011871
     67          1           0      -19.150470    0.426235   -0.036291
     68          1           0      -18.965934   -3.915514    0.221391
     69          1           0      -12.170983   -2.937056    1.294689
     70          1           0      -10.176451   -2.314176    0.007971
     71          1           0      -11.875059    1.680907    0.351889
     72          1           0       -5.412048    3.880301   -0.867689
     73          1           0       -3.232245    3.953612    0.257942
     74          1           0       -3.127330   -0.260757   -0.834034
     75          1           0        3.662401    3.687735   -0.453293
     76          1           0        4.223013   -0.942029   -1.184782
     77          1           0        5.613262    2.732523    0.693854
     78          1           0       10.742602   -3.142736   -0.314573
     79          1           0       12.714327    0.800973    1.359393
     80          1           0       12.994240   -2.700052   -1.214815
     81          1           0       19.652090    0.837522    1.011853
     82          1           0       20.374885   -1.667098    0.396566
 ---------------------------------------------------------------------

 The electronic state is 1-A.
 Alpha  occ. eigenvalues --  -88.26348 -88.26292 -88.26257 -88.26018 -88.25252
 Alpha  occ. eigenvalues --  -24.45611 -24.45544 -24.45389 -24.45308 -24.44849
 Alpha  occ. eigenvalues --  -24.44164 -24.44109 -24.43969 -24.43938 -24.43523
 Alpha  occ. eigenvalues --  -14.15342 -14.15307 -14.15268 -14.15048 -14.14277
 Alpha  occ. eigenvalues --  -10.15590 -10.15540 -10.15394 -10.15383 -10.15333
 Alpha  occ. eigenvalues --  -10.15253 -10.15198 -10.15064 -10.14901 -10.14720
 Alpha  occ. eigenvalues --  -10.13022 -10.12927 -10.12922 -10.12691 -10.11807
 Alpha  occ. eigenvalues --  -10.09899 -10.09859 -10.09725 -10.09627 -10.09616
 Alpha  occ. eigenvalues --  -10.09547 -10.09313 -10.09294 -10.09180 -10.09126
 Alpha  occ. eigenvalues --  -10.08989 -10.08983 -10.08562 -10.08558 -10.08485
 Alpha  occ. eigenvalues --  -10.08471 -10.08216 -10.07893 -10.07646 -10.07331
 Alpha  occ. eigenvalues --  -10.07163 -10.07141 -10.06991 -10.06964 -10.06905
 Alpha  occ. eigenvalues --  -10.06837 -10.06804 -10.06632 -10.06599 -10.06419
 Alpha  occ. eigenvalues --   -7.86832  -7.86780  -7.86740  -7.86502  -7.85746
 Alpha  occ. eigenvalues --   -5.88739  -5.88686  -5.88647  -5.88408  -5.88263
 Alpha  occ. eigenvalues --   -5.88210  -5.88170  -5.87931  -5.87910  -5.87859
 Alpha  occ. eigenvalues --   -5.87818  -5.87641  -5.87580  -5.87167  -5.86845
 Alpha  occ. eigenvalues --   -1.29581  -1.29524  -1.29367  -1.29263  -1.28839
 Alpha  occ. eigenvalues --   -1.28579  -1.28519  -1.28382  -1.28314  -1.27920
 Alpha  occ. eigenvalues --   -1.04984  -1.04935  -1.04899  -1.04661  -1.03731
 Alpha  occ. eigenvalues --   -0.97353  -0.97147  -0.96944  -0.96537  -0.96284
 Alpha  occ. eigenvalues --   -0.91618  -0.91234  -0.90876  -0.90546  -0.88400
 Alpha  occ. eigenvalues --   -0.88054  -0.88027  -0.87677  -0.87223  -0.86729
 Alpha  occ. eigenvalues --   -0.84985  -0.84915  -0.84740  -0.84471  -0.84341
 Alpha  occ. eigenvalues --   -0.83916  -0.83017  -0.81899  -0.80775  -0.79910
 Alpha  occ. eigenvalues --   -0.76153  -0.75213  -0.74105  -0.73663  -0.73488
 Alpha  occ. eigenvalues --   -0.72547  -0.72370  -0.72156  -0.72003  -0.71883
 Alpha  occ. eigenvalues --   -0.68360  -0.68177  -0.68132  -0.67968  -0.67714
 Alpha  occ. eigenvalues --   -0.67220  -0.66732  -0.66559  -0.66293  -0.65655
 Alpha  occ. eigenvalues --   -0.64390  -0.63832  -0.63547  -0.63347  -0.62998
 Alpha  occ. eigenvalues --   -0.61678  -0.61514  -0.61104  -0.60950  -0.60763
 Alpha  occ. eigenvalues --   -0.59841  -0.59544  -0.59429  -0.59200  -0.59162
 Alpha  occ. eigenvalues --   -0.58409  -0.58195  -0.58050  -0.57958  -0.57687
 Alpha  occ. eigenvalues --   -0.57622  -0.57448  -0.57362  -0.57305  -0.57164
 Alpha  occ. eigenvalues --   -0.56807  -0.56466  -0.55804  -0.55124  -0.54932
 Alpha  occ. eigenvalues --   -0.54890  -0.54766  -0.54662  -0.54331  -0.54163
 Alpha  occ. eigenvalues --   -0.53138  -0.52942  -0.52712  -0.52642  -0.52545
 Alpha  occ. eigenvalues --   -0.52133  -0.52054  -0.51964  -0.51817  -0.51696
 Alpha  occ. eigenvalues --   -0.51573  -0.51402  -0.51192  -0.51003  -0.50621
 Alpha  occ. eigenvalues --   -0.49894  -0.49027  -0.48920  -0.48799  -0.48206
 Alpha  occ. eigenvalues --   -0.48159  -0.47218  -0.47113  -0.46868  -0.46739
 Alpha  occ. eigenvalues --   -0.46728  -0.46493  -0.46388  -0.46280  -0.46174
 Alpha  occ. eigenvalues --   -0.46028  -0.45728  -0.45686  -0.45328  -0.44962
 Alpha  occ. eigenvalues --   -0.44945  -0.44278  -0.44165  -0.43858  -0.43820
 Alpha  occ. eigenvalues --   -0.43465  -0.41687  -0.40847  -0.39767  -0.38616
 Alpha  occ. eigenvalues --   -0.37486  -0.37154  -0.37111  -0.37008  -0.36785
 Alpha  occ. eigenvalues --   -0.36254  -0.35912  -0.35772  -0.35669  -0.35467
 Alpha  occ. eigenvalues --   -0.34852  -0.34519  -0.34492  -0.34332  -0.34182
 Alpha  occ. eigenvalues --   -0.33919  -0.33750  -0.32429  -0.30934  -0.29580
 Alpha  occ. eigenvalues --   -0.28665
 Alpha virt. eigenvalues --   -0.03852  -0.02712  -0.01227   0.00385   0.01768
 Alpha virt. eigenvalues --    0.04094   0.04185   0.04357   0.04421   0.04745
 Alpha virt. eigenvalues --    0.04812   0.05535   0.06858   0.07959   0.08501

  Beta  occ. eigenvalues --  -88.26348 -88.26292 -88.26257 -88.26018 -88.25252
  Beta  occ. eigenvalues --  -24.45611 -24.45544 -24.45389 -24.45308 -24.44849
  Beta  occ. eigenvalues --  -24.44164 -24.44109 -24.43969 -24.43938 -24.43523
  Beta  occ. eigenvalues --  -14.15342 -14.15307 -14.15268 -14.15048 -14.14277
  Beta  occ. eigenvalues --  -10.15590 -10.15540 -10.15394 -10.15383 -10.15333
  Beta  occ. eigenvalues --  -10.15253 -10.15198 -10.15064 -10.14901 -10.14720
  Beta  occ. eigenvalues --  -10.13022 -10.12927 -10.12922 -10.12691 -10.11807
  Beta  occ. eigenvalues --  -10.09899 -10.09859 -10.09725 -10.09627 -10.09616
  Beta  occ. eigenvalues --  -10.09547 -10.09313 -10.09294 -10.09180 -10.09126
  Beta  occ. eigenvalues --  -10.08989 -10.08983 -10.08562 -10.08558 -10.08485
  Beta  occ. eigenvalues --  -10.08471 -10.08216 -10.07893 -10.07646 -10.07331
  Beta  occ. eigenvalues --  -10.07163 -10.07141 -10.06991 -10.06964 -10.06905
  Beta  occ. eigenvalues --  -10.06837 -10.06804 -10.06632 -10.06599 -10.06419
  Beta  occ. eigenvalues --   -7.86832  -7.86780  -7.86740  -7.86502  -7.85746
  Beta  occ. eigenvalues --   -5.88739  -5.88686  -5.88647  -5.88408  -5.88263
  Beta  occ. eigenvalues --   -5.88210  -5.88170  -5.87931  -5.87910  -5.87859
  Beta  occ. eigenvalues --   -5.87818  -5.87641  -5.87580  -5.87167  -5.86845
  Beta  occ. eigenvalues --   -1.29581  -1.29524  -1.29367  -1.29263  -1.28839
  Beta  occ. eigenvalues --   -1.28579  -1.28519  -1.28382  -1.28314  -1.27920
  Beta  occ. eigenvalues --   -1.04984  -1.04935  -1.04899  -1.04661  -1.03731
  Beta  occ. eigenvalues --   -0.97353  -0.97147  -0.96944  -0.96537  -0.96284
  Beta  occ. eigenvalues --   -0.91618  -0.91234  -0.90876  -0.90546  -0.88400
  Beta  occ. eigenvalues --   -0.88054  -0.88027  -0.87677  -0.87223  -0.86729
  Beta  occ. eigenvalues --   -0.84985  -0.84915  -0.84740  -0.84471  -0.84341
  Beta  occ. eigenvalues --   -0.83916  -0.83017  -0.81899  -0.80775  -0.79910
  Beta  occ. eigenvalues --   -0.76153  -0.75213  -0.74105  -0.73663  -0.73488
  Beta  occ. eigenvalues --   -0.72547  -0.72370  -0.72156  -0.72003  -0.71883
  Beta  occ. eigenvalues --   -0.68360  -0.68177  -0.68132  -0.67968  -0.67714
  Beta  occ. eigenvalues --   -0.67220  -0.66732  -0.66559  -0.66293  -0.65655
  Beta  occ. eigenvalues --   -0.64390  -0.63832  -0.63547  -0.63347  -0.62998
  Beta  occ. eigenvalues --   -0.61678  -0.61514  -0.61104  -0.60950  -0.60763
  Beta  occ. eigenvalues --   -0.59841  -0.59544  -0.59429  -0.59200  -0.59162
  Beta  occ. eigenvalues --   -0.58409  -0.58195  -0.58050  -0.57958  -0.57687
  Beta  occ. eigenvalues --   -0.57622  -0.57448  -0.57362  -0.57305  -0.57164
  Beta  occ. eigenvalues --   -0.56807  -0.56466  -0.55804  -0.55124  -0.54932
  Beta  occ. eigenvalues --   -0.54890  -0.54766  -0.54662  -0.54331  -0.54163
  Beta  occ. eigenvalues --   -0.53138  -0.52942  -0.52712  -0.52642  -0.52545
  Beta  occ. eigenvalues --   -0.52133  -0.52054  -0.51964  -0.51817  -0.51696
  Beta  occ. eigenvalues --   -0.51573  -0.51402  -0.51192  -0.51003  -0.50621
  Beta  occ. eigenvalues --   -0.49894  -0.49027  -0.48920  -0.48799  -0.48206
  Beta  occ. eigenvalues --   -0.48159  -0.47218  -0.47113  -0.46868  -0.46739
  Beta  occ. eigenvalues --   -0.46728  -0.46493  -0.46388  -0.46280  -0.46174
  Beta  occ. eigenvalues --   -0.46028  -0.45728  -0.45686  -0.45328  -0.44962
  Beta  occ. eigenvalues --   -0.44945  -0.44278  -0.44165  -0.43858  -0.43820
  Beta  occ. eigenvalues --   -0.43465  -0.41687  -0.40847  -0.39767  -0.38616
  Beta  occ. eigenvalues --   -0.37486  -0.37154  -0.37111  -0.37008  -0.36785
  Beta  occ. eigenvalues --   -0.36254  -0.35912  -0.35772  -0.35669  -0.35467
  Beta  occ. eigenvalues --   -0.34852  -0.34519  -0.34492  -0.34332  -0.34182
  Beta  occ. eigenvalues --   -0.33919  -0.33750  -0.32429  -0.30934  -0.29580
  Beta  occ. eigenvalues --   -0.28665
  Beta virt. eigenvalues --   -0.03852  -0.02712  -0.01227   0.00385   0.01768
  Beta virt. eigenvalues --    0.04094   0.04185   0.04357   0.04421   0.04745
  Beta virt. eigenvalues --    0.04812   0.05535   0.06858   0.07959   0.08501

 Mulliken charges and spin densities:
               1          2
     1  C    0.044975   0.000000
     2  C    0.018410   0.000000
     3  C    0.095989  -0.000000
     4  F   -0.121741  -0.000000
     5  C   -0.049719   0.000000
     6  C    0.111929  -0.000000
     7  F   -0.093298   0.000000
     8  C    0.010411  -0.000000
     9  C    0.000283  -0.000000
    10  N   -0.161848  -0.000000
    11  C    0.125345   0.000000
    12  C   -0.210181   0.000000
    13  S    0.174737   0.000000
    14  C    0.078996  -0.000000
    15  C    0.004769  -0.000000
    16  C    0.100632   0.000000
    17  F   -0.120201   0.000000
    18  C   -0.041414   0.000000
    19  C    0.118140  -0.000000
    20  F   -0.089663   0.000000
    21  C   -0.000733   0.000000
    22  C    0.000704  -0.000000
    23  N   -0.164278   0.000000
    24  C    0.126671  -0.000000
    25  C   -0.210068   0.000000
    26  S    0.171484   0.000000
    27  C    0.078441   0.000000
    28  C   -0.005159  -0.000000
    29  C    0.121451   0.000000
    30  F   -0.090297  -0.000000
    31  C   -0.041465  -0.000000
    32  C    0.097551  -0.000000
    33  F   -0.119257   0.000000
    34  C    0.009459  -0.000000
    35  C   -0.000202   0.000000
    36  N   -0.164479  -0.000000
    37  C    0.126072  -0.000000
    38  C   -0.210157   0.000000
    39  S    0.174229  -0.000000
    40  C    0.078269   0.000000
    41  C   -0.000791  -0.000000
    42  C    0.117788   0.000000
    43  F   -0.089927  -0.000000
    44  C   -0.040516  -0.000000
    45  C    0.100472  -0.000000
    46  F   -0.119649   0.000000
    47  C    0.004777  -0.000000
    48  C   -0.000974   0.000000
    49  N   -0.165001  -0.000000
    50  C    0.125301   0.000000
    51  C   -0.208971  -0.000000
    52  S    0.173589  -0.000000
    53  C    0.076164   0.000000
    54  C   -0.003065  -0.000000
    55  C    0.118365   0.000000
    56  F   -0.091504  -0.000000
    57  C   -0.036558  -0.000000
    58  C    0.104678  -0.000000
    59  F   -0.120319  -0.000000
    60  C    0.001934  -0.000000
    61  C   -0.022791   0.000000
    62  N   -0.167777   0.000000
    63  C    0.116356  -0.000000
    64  C   -0.170904  -0.000000
    65  S    0.170563   0.000000
    66  H    0.008192   0.000000
    67  H    0.010472  -0.000000
    68  H    0.010045  -0.000000
    69  H    0.011698  -0.000000
    70  H    0.002628  -0.000000
    71  H    0.007211   0.000000
    72  H    0.013346   0.000000
    73  H    0.002078  -0.000000
    74  H    0.007824  -0.000000
    75  H    0.012095   0.000000
    76  H    0.006622   0.000000
    77  H    0.002467  -0.000000
    78  H    0.011282  -0.000000
    79  H    0.005423  -0.000000
    80  H    0.000792   0.000000
    81  H    0.008081  -0.000000
    82  H    0.033714  -0.000000
 Sum of Mulliken charges =  -0.00000  -0.00000

 Dipole moment (field-independent basis, Debye):
    X=             -5.3486    Y=             -1.2428    Z=             -0.2669  Tot=              5.4976
 Quadrupole moment (field-independent basis, Debye-Ang):
   XX=           -269.5432   YY=           -395.1107   ZZ=           -398.4503
   XY=             -6.4007   XZ=              2.5402   YZ=              2.2459

 Normal termination of Gaussian 16 at Sat Jul 25 20:41:38 2020.
