 Gaussian 16, Revision A.03,
 Gaussian 16:  EM64L-G16RevA.03 25-Dec-2016

 ---------------------------------------------------------------
 #P uLC-wPBE/cc-pVDZ iop(3/107=0158700000, 3/108=0158700000) opt
 ---------------------------------------------------------------

 ----------------
 H11 C12 S1 O2 F1
 ----------------
 Symbolic Z-matrix:
 Charge =  0 Multiplicity = 1

 SCF Done:  E(ULC-wPBE) =  -1111.54580740     A.U. after   15 cycles
 SCF Done:  E(ULC-wPBE) =  -1111.57566349     A.U. after   14 cycles
 SCF Done:  E(ULC-wPBE) =  -1111.58183758     A.U. after   14 cycles
 SCF Done:  E(ULC-wPBE) =  -1111.58242475     A.U. after   13 cycles
 SCF Done:  E(ULC-wPBE) =  -1111.58273917     A.U. after   12 cycles
 SCF Done:  E(ULC-wPBE) =  -1111.58292615     A.U. after   12 cycles
 SCF Done:  E(ULC-wPBE) =  -1111.58309523     A.U. after   13 cycles
 SCF Done:  E(ULC-wPBE) =  -1111.58329523     A.U. after   13 cycles
 SCF Done:  E(ULC-wPBE) =  -1111.58360869     A.U. after   13 cycles
 SCF Done:  E(ULC-wPBE) =  -1111.58400491     A.U. after   13 cycles
 SCF Done:  E(ULC-wPBE) =  -1111.58765186     A.U. after   12 cycles
 SCF Done:  E(ULC-wPBE) =  -1111.58774574     A.U. after   13 cycles
 SCF Done:  E(ULC-wPBE) =  -1111.58775342     A.U. after   13 cycles
 SCF Done:  E(ULC-wPBE) =  -1111.58804015     A.U. after   12 cycles
 SCF Done:  E(ULC-wPBE) =  -1111.58809266     A.U. after   12 cycles
 SCF Done:  E(ULC-wPBE) =  -1111.58809609     A.U. after    9 cycles
 SCF Done:  E(ULC-wPBE) =  -1111.58809732     A.U. after    9 cycles
 SCF Done:  E(ULC-wPBE) =  -1111.58809756     A.U. after    7 cycles
 SCF Done:  E(ULC-wPBE) =  -1111.58809766     A.U. after    7 cycles
 SCF Done:  E(ULC-wPBE) =  -1111.58809770     A.U. after    6 cycles
 Optimization completed.
    -- Stationary point found.

                         Standard orientation:
 ---------------------------------------------------------------------
 Center     Atomic      Atomic             Coordinates (Angstroms)
 Number     Number       Type             X           Y           Z
 ---------------------------------------------------------------------
      1          6           0       -3.306880    0.203261   -0.026630
      2          6           0       -2.720218   -1.056323    0.128262
      3          6           0       -1.318189   -1.162847    0.125191
      4          8           0       -0.646201   -2.343504    0.271043
      5          6           0       -1.413327   -3.529347    0.431140
      6          6           0       -0.497807   -0.017883   -0.030426
      7          6           0       -1.128145    1.240556   -0.205936
      8          8           0       -0.285704    2.295901   -0.393754
      9          6           0       -0.858844    3.590362   -0.514060
     10          6           0       -2.530815    1.353146   -0.194456
     11          6           0        0.973183   -0.115363   -0.010888
     12          6           0        1.869025    0.623482    0.738432
     13          9           0        1.478961    1.541939    1.647460
     14          6           0        3.245487    0.345419    0.504097
     15          6           0        3.397736   -0.632057   -0.451404
     16         16           0        1.875576   -1.204247   -1.043772
     17          1           0       -4.402225    0.290249   -0.019995
     18          1           0       -3.352123   -1.941876    0.255809
     19          1           0       -2.041736   -3.492661    1.346783
     20          1           0       -0.680386   -4.349390    0.526573
     21          1           0       -2.064864   -3.721626   -0.448289
     22          1           0       -1.436498    3.870319    0.392761
     23          1           0       -1.519328    3.670002   -1.404391
     24          1           0       -0.008373    4.284394   -0.630992
     25          1           0       -3.017384    2.326081   -0.322878
     26          1           0        4.063594    0.847741    1.031243
     27          1           0        4.327460   -1.066344   -0.831644
 ---------------------------------------------------------------------

 The electronic state is 1-A.
 Alpha  occ. eigenvalues --  -88.18061 -24.36188 -18.88918 -18.88625 -10.05427
 Alpha  occ. eigenvalues --  -10.04813 -10.04754 -10.04284 -10.04051 -10.01072
 Alpha  occ. eigenvalues --  -10.01060  -9.99708  -9.99403  -9.98808  -9.98314
 Alpha  occ. eigenvalues --   -9.98269  -7.78347  -5.80406  -5.79951  -5.79541
 Alpha  occ. eigenvalues --   -1.19569  -1.07114  -1.06857  -0.89299  -0.86296
 Alpha  occ. eigenvalues --   -0.79524  -0.77456  -0.74790  -0.73812  -0.72540
 Alpha  occ. eigenvalues --   -0.70552  -0.64463  -0.61532  -0.59839  -0.58968
 Alpha  occ. eigenvalues --   -0.57443  -0.54959  -0.53313  -0.52144  -0.50387
 Alpha  occ. eigenvalues --   -0.50250  -0.49800  -0.47949  -0.47432  -0.47255
 Alpha  occ. eigenvalues --   -0.46625  -0.44850  -0.44006  -0.42662  -0.42120
 Alpha  occ. eigenvalues --   -0.40978  -0.39786  -0.39313  -0.37961  -0.37694
 Alpha  occ. eigenvalues --   -0.36980  -0.35868  -0.34735  -0.29806  -0.28139
 Alpha  occ. eigenvalues --   -0.26556  -0.25178
 Alpha virt. eigenvalues --    0.01906   0.05422   0.06076   0.08875   0.10991
 Alpha virt. eigenvalues --    0.11876   0.12461   0.13116   0.13944   0.14730
 Alpha virt. eigenvalues --    0.15985   0.16546   0.17089   0.18015   0.18228

  Beta  occ. eigenvalues --  -88.18061 -24.36188 -18.88918 -18.88625 -10.05427
  Beta  occ. eigenvalues --  -10.04813 -10.04754 -10.04284 -10.04051 -10.01072
  Beta  occ. eigenvalues --  -10.01060  -9.99708  -9.99403  -9.98808  -9.98314
  Beta  occ. eigenvalues --   -9.98269  -7.78347  -5.80406  -5.79951  -5.79541
  Beta  occ. eigenvalues --   -1.19569  -1.07114  -1.06857  -0.89299  -0.86296
  Beta  occ. eigenvalues --   -0.79524  -0.77456  -0.74790  -0.73812  -0.72540
  Beta  occ. eigenvalues --   -0.70552  -0.64463  -0.61532  -0.59839  -0.58968
  Beta  occ. eigenvalues --   -0.57443  -0.54959  -0.53313  -0.52144  -0.50387
  Beta  occ. eigenvalues --   -0.50250  -0.49800  -0.47949  -0.47432  -0.47255
  Beta  occ. eigenvalues --   -0.46625  -0.44850  -0.44006  -0.42662  -0.42120
  Beta  occ. eigenvalues --   -0.40978  -0.39786  -0.39313  -0.37961  -0.37694
  Beta  occ. eigenvalues --   -0.36980  -0.35868  -0.34735  -0.29806  -0.28139
  Beta  occ. eigenvalues --   -0.26556  -0.25178
  Beta virt. eigenvalues --    0.01906   0.05422   0.06076   0.08875   0.10991
  Beta virt. eigenvalues --    0.11876   0.12461   0.13116   0.13944   0.14730
  Beta virt. eigenvalues --    0.15985   0.16546   0.17089   0.18015   0.18228

 Mulliken charges and spin densities:
               1          2
     1  C    0.030445   0.000000
     2  C   -0.030943   0.000000
     3  C    0.106251  -0.000000
     4  O   -0.232370  -0.000000
     5  C    0.064018   0.000000
     6  C   -0.000919   0.000000
     7  C    0.105334  -0.000000
     8  O   -0.227722   0.000000
     9  C    0.064647  -0.000000
    10  C   -0.030970  -0.000000
    11  C   -0.166931   0.000000
    12  C    0.133870  -0.000000
    13  F   -0.123968  -0.000000
    14  C    0.050315  -0.000000
    15  C   -0.124924   0.000000
    16  S    0.168037   0.000000
    17  H   -0.020751   0.000000
    18  H   -0.024471   0.000000
    19  H    0.044450  -0.000000
    20  H    0.050237  -0.000000
    21  H    0.043365  -0.000000
    22  H    0.044090  -0.000000
    23  H    0.041960  -0.000000
    24  H    0.049755  -0.000000
    25  H   -0.023723   0.000000
    26  H   -0.008579   0.000000
    27  H    0.019499  -0.000000
 Sum of Mulliken charges =  -0.00000  -0.00000

 Dipole moment (field-independent basis, Debye):
    X=             -1.3470    Y=             -0.3127    Z=             -0.4324  Tot=              1.4489
 Quadrupole moment (field-independent basis, Debye-Ang):
   XX=            -86.6174   YY=            -81.4883   ZZ=           -102.2501
   XY=              0.1229   XZ=             -0.8211   YZ=             -2.0841

 Normal termination of Gaussian 16 at Mon Jul 27 11:58:36 2020.
