 Gaussian 16, Revision A.03,
 Gaussian 16:  EM64L-G16RevA.03 25-Dec-2016

 ---------------------------------------------------------------
 #P uLC-wPBE/cc-pVDZ iop(3/107=0466000000, 3/108=0466000000) opt
 ---------------------------------------------------------------

 ---------------
 H9 C11 S1 O1 F1
 ---------------
 Symbolic Z-matrix:
 Charge =  0 Multiplicity = 1

 SCF Done:  E(ULC-wPBE) =  -997.302180633     A.U. after   16 cycles
 SCF Done:  E(ULC-wPBE) =  -997.336585327     A.U. after   14 cycles
 SCF Done:  E(ULC-wPBE) =  -997.344039047     A.U. after   14 cycles
 SCF Done:  E(ULC-wPBE) =  -997.344876513     A.U. after   14 cycles
 SCF Done:  E(ULC-wPBE) =  -997.345158883     A.U. after   14 cycles
 SCF Done:  E(ULC-wPBE) =  -997.345242018     A.U. after   13 cycles
 SCF Done:  E(ULC-wPBE) =  -997.345259755     A.U. after   12 cycles
 SCF Done:  E(ULC-wPBE) =  -997.345262053     A.U. after   10 cycles
 SCF Done:  E(ULC-wPBE) =  -997.345262722     A.U. after    9 cycles
 SCF Done:  E(ULC-wPBE) =  -997.345263215     A.U. after    9 cycles
 SCF Done:  E(ULC-wPBE) =  -997.345263550     A.U. after    9 cycles
 SCF Done:  E(ULC-wPBE) =  -997.345263813     A.U. after    8 cycles
 SCF Done:  E(ULC-wPBE) =  -997.345263957     A.U. after    9 cycles
 Optimization completed.
    -- Stationary point found.

                         Standard orientation:
 ---------------------------------------------------------------------
 Center     Atomic      Atomic             Coordinates (Angstroms)
 Number     Number       Type             X           Y           Z
 ---------------------------------------------------------------------
      1          6           0       -3.580614    0.888139   -0.104984
      2          6           0       -2.592838    1.759936   -0.535327
      3          6           0       -1.266421    1.365135   -0.537285
      4          6           0       -0.880214    0.094107   -0.106824
      5          6           0       -1.902783   -0.750576    0.312580
      6          9           0       -1.596964   -1.990380    0.726244
      7          6           0       -3.230984   -0.381181    0.320905
      8          6           0        0.530933   -0.317904   -0.102504
      9          6           0        1.633367    0.487858    0.036985
     10          8           0        1.509499    1.819272    0.236806
     11          6           0        2.681313    2.537885    0.524530
     12          6           0        2.867557   -0.218358   -0.056219
     13          6           0        2.672332   -1.543391   -0.272764
     14         16           0        1.026914   -1.952339   -0.348965
     15          1           0       -4.625644    1.192087   -0.102622
     16          1           0       -2.855390    2.758633   -0.878614
     17          1           0       -0.496640    2.052361   -0.874235
     18          1           0       -3.969254   -1.101366    0.665454
     19          1           0        3.186533    2.143360    1.416882
     20          1           0        2.372803    3.568459    0.717597
     21          1           0        3.380832    2.529198   -0.323125
     22          1           0        3.849561    0.233931    0.034237
     23          1           0        3.433376   -2.309897   -0.377349
 ---------------------------------------------------------------------

 The electronic state is 1-A.
 Alpha  occ. eigenvalues --  -88.35228 -24.53056 -19.04952 -10.23859 -10.21991
 Alpha  occ. eigenvalues --  -10.21422 -10.18755 -10.18251 -10.17849 -10.16443
 Alpha  occ. eigenvalues --  -10.16261 -10.16057 -10.16046 -10.15635  -7.96130
 Alpha  occ. eigenvalues --   -5.97363  -5.96801  -5.96406  -1.37836  -1.24609
 Alpha  occ. eigenvalues --   -1.07546  -1.04642  -0.95819  -0.92219  -0.91810
 Alpha  occ. eigenvalues --   -0.89352  -0.84955  -0.78500  -0.77314  -0.72961
 Alpha  occ. eigenvalues --   -0.70504  -0.69221  -0.66722  -0.63506  -0.62564
 Alpha  occ. eigenvalues --   -0.62008  -0.61296  -0.60542  -0.57860  -0.56892
 Alpha  occ. eigenvalues --   -0.55230  -0.54366  -0.53731  -0.52658  -0.50406
 Alpha  occ. eigenvalues --   -0.49256  -0.48229  -0.46330  -0.46069  -0.45441
 Alpha  occ. eigenvalues --   -0.39769  -0.35865  -0.34773  -0.30668
 Alpha virt. eigenvalues --    0.04587   0.08812   0.10879   0.15175   0.16010
 Alpha virt. eigenvalues --    0.16356   0.18285   0.18655   0.20638   0.21242
 Alpha virt. eigenvalues --    0.22316   0.23147   0.23685   0.25059   0.25436

  Beta  occ. eigenvalues --  -88.35228 -24.53056 -19.04952 -10.23859 -10.21991
  Beta  occ. eigenvalues --  -10.21422 -10.18755 -10.18251 -10.17849 -10.16443
  Beta  occ. eigenvalues --  -10.16261 -10.16057 -10.16046 -10.15635  -7.96130
  Beta  occ. eigenvalues --   -5.97363  -5.96801  -5.96406  -1.37836  -1.24609
  Beta  occ. eigenvalues --   -1.07546  -1.04642  -0.95819  -0.92219  -0.91810
  Beta  occ. eigenvalues --   -0.89352  -0.84955  -0.78500  -0.77314  -0.72961
  Beta  occ. eigenvalues --   -0.70504  -0.69221  -0.66722  -0.63506  -0.62564
  Beta  occ. eigenvalues --   -0.62008  -0.61296  -0.60542  -0.57860  -0.56892
  Beta  occ. eigenvalues --   -0.55230  -0.54366  -0.53731  -0.52658  -0.50406
  Beta  occ. eigenvalues --   -0.49256  -0.48229  -0.46330  -0.46069  -0.45441
  Beta  occ. eigenvalues --   -0.39769  -0.35865  -0.34773  -0.30668
  Beta virt. eigenvalues --    0.04587   0.08812   0.10879   0.15175   0.16010
  Beta virt. eigenvalues --    0.16356   0.18285   0.18655   0.20638   0.21242
  Beta virt. eigenvalues --    0.22316   0.23147   0.23685   0.25059   0.25436

 Mulliken charges and spin densities:
               1          2
     1  C    0.000366   0.000000
     2  C    0.001628   0.000000
     3  C   -0.001563   0.000000
     4  C   -0.024764   0.000000
     5  C    0.098290   0.000000
     6  F   -0.136583   0.000000
     7  C   -0.010048  -0.000000
     8  C   -0.201354   0.000000
     9  C    0.149618  -0.000000
    10  O   -0.270500  -0.000000
    11  C    0.033167  -0.000000
    12  C   -0.011569   0.000000
    13  C   -0.144210  -0.000000
    14  S    0.188844  -0.000000
    15  H    0.018648   0.000000
    16  H    0.013315  -0.000000
    17  H    0.020380  -0.000000
    18  H    0.028319  -0.000000
    19  H    0.055001   0.000000
    20  H    0.067177   0.000000
    21  H    0.053465   0.000000
    22  H    0.021610  -0.000000
    23  H    0.050762   0.000000
 Sum of Mulliken charges =  -0.00000   0.00000

 Dipole moment (field-independent basis, Debye):
    X=              1.8139    Y=              1.9932    Z=             -0.0568  Tot=              2.6956
 Quadrupole moment (field-independent basis, Debye-Ang):
   XX=            -68.2850   YY=            -80.2966   ZZ=            -90.2495
   XY=              1.1791   XZ=              0.7633   YZ=              0.3709

 Normal termination of Gaussian 16 at Fri Jul 24 12:30:41 2020.
