 Gaussian 16, Revision A.03,
 Gaussian 16:  EM64L-G16RevA.03 25-Dec-2016

 ---------------------------------------------------------------
 #P uLC-wPBE/cc-pVDZ iop(3/107=0311400000, 3/108=0311400000) opt
 ---------------------------------------------------------------

 -------------------
 H20 C30 S3 N3 O3 F3
 -------------------
 Symbolic Z-matrix:
 Charge =  0 Multiplicity = 1

 SCF Done:  E(ULC-wPBE) =  -3037.41910968     A.U. after   16 cycles
 SCF Done:  E(ULC-wPBE) =  -3037.48705248     A.U. after   14 cycles
 SCF Done:  E(ULC-wPBE) =  -3037.53393886     A.U. after   14 cycles
 SCF Done:  E(ULC-wPBE) =  -3037.54700829     A.U. after   14 cycles
 SCF Done:  E(ULC-wPBE) =  -3037.54987880     A.U. after   14 cycles
 SCF Done:  E(ULC-wPBE) =  -3037.54892765     A.U. after   14 cycles
 SCF Done:  E(ULC-wPBE) =  -3037.55108928     A.U. after   13 cycles
 SCF Done:  E(ULC-wPBE) =  -3037.55142774     A.U. after   13 cycles
 SCF Done:  E(ULC-wPBE) =  -3037.55142729     A.U. after   12 cycles
 SCF Done:  E(ULC-wPBE) =  -3037.55159020     A.U. after   12 cycles
 SCF Done:  E(ULC-wPBE) =  -3037.55161616     A.U. after   11 cycles
 SCF Done:  E(ULC-wPBE) =  -3037.55162425     A.U. after   11 cycles
 SCF Done:  E(ULC-wPBE) =  -3037.55162673     A.U. after   11 cycles
 SCF Done:  E(ULC-wPBE) =  -3037.55162890     A.U. after    9 cycles
 SCF Done:  E(ULC-wPBE) =  -3037.55162974     A.U. after    8 cycles
 SCF Done:  E(ULC-wPBE) =  -3037.55163027     A.U. after    8 cycles
 SCF Done:  E(ULC-wPBE) =  -3037.55163069     A.U. after    8 cycles
 SCF Done:  E(ULC-wPBE) =  -3037.55163091     A.U. after    8 cycles
 SCF Done:  E(ULC-wPBE) =  -3037.55163101     A.U. after    7 cycles
 Optimization completed.
    -- Stationary point found.

                         Standard orientation:
 ---------------------------------------------------------------------
 Center     Atomic      Atomic             Coordinates (Angstroms)
 Number     Number       Type             X           Y           Z
 ---------------------------------------------------------------------
      1          6           0       11.382708   -0.516326   -0.092677
      2          6           0       10.377266   -1.285112    0.488847
      3          7           0        9.095314   -0.923739    0.514405
      4          6           0        8.731370    0.237537   -0.051719
      5          6           0        9.681610    1.032450   -0.707597
      6          9           0        9.304701    2.135400   -1.370898
      7          6           0       11.018831    0.671979   -0.716736
      8          6           0        7.301635    0.573161    0.003538
      9          6           0        6.663542    1.791760    0.143310
     10          8           0        7.370952    2.936443    0.279586
     11          6           0        6.634867    4.142819    0.343939
     12          6           0        5.242038    1.671628    0.191559
     13          6           0        4.821422    0.365537    0.111871
     14         16           0        6.152199   -0.720753   -0.016372
     15          6           0        3.435449   -0.128360    0.132133
     16          6           0        2.386997    0.634130   -0.401282
     17          7           0        1.117122    0.245017   -0.421654
     18          6           0        0.782099   -0.951650    0.086531
     19          6           0        1.765521   -1.754246    0.680766
     20          9           0        1.431372   -2.898492    1.293630
     21          6           0        3.090923   -1.360026    0.695577
     22          6           0       -0.639923   -1.312441    0.035940
     23          6           0       -1.256178   -2.536257   -0.152299
     24          8           0       -0.529046   -3.661255   -0.335076
     25          6           0       -1.243634   -4.875260   -0.466335
     26          6           0       -2.680414   -2.442856   -0.176269
     27          6           0       -3.126031   -1.150888   -0.031057
     28         16           0       -1.814938   -0.042488    0.112343
     29          6           0       -4.521886   -0.684086   -0.010047
     30          6           0       -5.521811   -1.353080   -0.728969
     31          7           0       -6.796884   -0.980708   -0.758021
     32          6           0       -7.185659    0.104635   -0.070436
     33          6           0       -6.254328    0.802950    0.710333
     34          9           0       -6.647296    1.820801    1.489334
     35          6           0       -4.923887    0.427443    0.735823
     36          6           0       -8.609317    0.457542   -0.138402
     37          6           0       -9.227063    1.694218   -0.164342
     38          8           0       -8.500721    2.836016   -0.140705
     39          6           0       -9.220255    4.052811   -0.108156
     40          6           0      -10.650476    1.601082   -0.275517
     41          6           0      -11.070431    0.301564   -0.352248
     42         16           0       -9.775183   -0.813078   -0.307236
     43          1           0       12.424499   -0.848299   -0.073681
     44          1           0       10.613133   -2.245621    0.963625
     45          1           0       11.741516    1.314919   -1.227442
     46          1           0        6.013770    4.289428   -0.558882
     47          1           0        7.377714    4.950835    0.402938
     48          1           0        5.990462    4.180599    1.241893
     49          1           0        4.554534    2.507966    0.324767
     50          1           0        2.595692    1.611046   -0.854447
     51          1           0        3.830836   -2.004098    1.180536
     52          1           0       -1.895994   -4.869998   -1.359251
     53          1           0       -1.852928   -5.088234    0.431280
     54          1           0       -0.486474   -5.663750   -0.580640
     55          1           0       -3.354300   -3.294645   -0.276300
     56          1           0       -5.267330   -2.233521   -1.331765
     57          1           0       -4.226292    0.986375    1.366938
     58          1           0       -8.467127    4.851878   -0.056028
     59          1           0       -9.874472    4.116020    0.781039
     60          1           0       -9.829482    4.191841   -1.020719
     61          1           0      -11.330477    2.453337   -0.308518
     62          1           0      -12.097781   -0.053927   -0.443737
 ---------------------------------------------------------------------

 The electronic state is 1-A.
 Alpha  occ. eigenvalues --  -88.27364 -88.27286 -88.26810 -24.45948 -24.45946
 Alpha  occ. eigenvalues --  -24.45745 -18.97241 -18.97185 -18.96842 -14.17730
 Alpha  occ. eigenvalues --  -14.17550 -14.17482 -10.16440 -10.16352 -10.16210
 Alpha  occ. eigenvalues --  -10.14021 -10.13989 -10.13501 -10.13082 -10.12989
 Alpha  occ. eigenvalues --  -10.12890 -10.12884 -10.12776 -10.12635 -10.11746
 Alpha  occ. eigenvalues --  -10.11690 -10.11205 -10.11018 -10.10991 -10.10728
 Alpha  occ. eigenvalues --  -10.10547 -10.10293 -10.09944 -10.09943 -10.09907
 Alpha  occ. eigenvalues --  -10.09900 -10.09734 -10.09376 -10.09195 -10.08325
 Alpha  occ. eigenvalues --  -10.08234 -10.07822  -7.87898  -7.87820  -7.87354
 Alpha  occ. eigenvalues --   -5.89713  -5.89636  -5.89211  -5.89161  -5.89134
 Alpha  occ. eigenvalues --   -5.88785  -5.88706  -5.88656  -5.88257  -1.30441
 Alpha  occ. eigenvalues --   -1.30413  -1.30229  -1.16595  -1.16546  -1.16174
 Alpha  occ. eigenvalues --   -1.05877  -1.05615  -1.05594  -1.00132  -0.99726
 Alpha  occ. eigenvalues --   -0.98834  -0.93381  -0.92588  -0.91693  -0.89764
 Alpha  occ. eigenvalues --   -0.89278  -0.88469  -0.86209  -0.85786  -0.85438
 Alpha  occ. eigenvalues --   -0.84918  -0.83725  -0.82748  -0.80243  -0.79654
 Alpha  occ. eigenvalues --   -0.78376  -0.76823  -0.75004  -0.74885  -0.74111
 Alpha  occ. eigenvalues --   -0.73881  -0.72775  -0.68182  -0.67749  -0.67341
 Alpha  occ. eigenvalues --   -0.67059  -0.66713  -0.66236  -0.65566  -0.64968
 Alpha  occ. eigenvalues --   -0.64221  -0.63089  -0.62196  -0.62047  -0.61863
 Alpha  occ. eigenvalues --   -0.61206  -0.61098  -0.58836  -0.58346  -0.57830
 Alpha  occ. eigenvalues --   -0.57734  -0.57668  -0.57471  -0.57395  -0.57333
 Alpha  occ. eigenvalues --   -0.57199  -0.55726  -0.55639  -0.55078  -0.53635
 Alpha  occ. eigenvalues --   -0.53536  -0.53326  -0.53031  -0.51954  -0.51742
 Alpha  occ. eigenvalues --   -0.51321  -0.51256  -0.51176  -0.51059  -0.50778
 Alpha  occ. eigenvalues --   -0.50633  -0.50230  -0.49914  -0.49363  -0.48861
 Alpha  occ. eigenvalues --   -0.48772  -0.48491  -0.48094  -0.46996  -0.46787
 Alpha  occ. eigenvalues --   -0.46582  -0.44576  -0.44228  -0.43909  -0.43713
 Alpha  occ. eigenvalues --   -0.43281  -0.42973  -0.42761  -0.42615  -0.41940
 Alpha  occ. eigenvalues --   -0.40445  -0.39457  -0.38496  -0.36685  -0.36420
 Alpha  occ. eigenvalues --   -0.36020  -0.35751  -0.35585  -0.35500  -0.33409
 Alpha  occ. eigenvalues --   -0.32783  -0.32441  -0.30442  -0.29012  -0.27408
 Alpha virt. eigenvalues --   -0.00673   0.01426   0.03731   0.05069   0.05324
 Alpha virt. eigenvalues --    0.05887   0.06951   0.09143   0.10902   0.12105
 Alpha virt. eigenvalues --    0.12361   0.13029   0.14365   0.14415   0.14735

  Beta  occ. eigenvalues --  -88.27364 -88.27286 -88.26810 -24.45948 -24.45946
  Beta  occ. eigenvalues --  -24.45745 -18.97241 -18.97185 -18.96842 -14.17730
  Beta  occ. eigenvalues --  -14.17550 -14.17482 -10.16440 -10.16352 -10.16210
  Beta  occ. eigenvalues --  -10.14021 -10.13989 -10.13501 -10.13082 -10.12989
  Beta  occ. eigenvalues --  -10.12890 -10.12884 -10.12776 -10.12635 -10.11746
  Beta  occ. eigenvalues --  -10.11690 -10.11205 -10.11018 -10.10991 -10.10728
  Beta  occ. eigenvalues --  -10.10547 -10.10293 -10.09944 -10.09943 -10.09907
  Beta  occ. eigenvalues --  -10.09900 -10.09734 -10.09376 -10.09195 -10.08325
  Beta  occ. eigenvalues --  -10.08234 -10.07822  -7.87898  -7.87820  -7.87354
  Beta  occ. eigenvalues --   -5.89713  -5.89636  -5.89211  -5.89161  -5.89134
  Beta  occ. eigenvalues --   -5.88785  -5.88706  -5.88656  -5.88257  -1.30441
  Beta  occ. eigenvalues --   -1.30413  -1.30229  -1.16595  -1.16546  -1.16174
  Beta  occ. eigenvalues --   -1.05877  -1.05615  -1.05594  -1.00132  -0.99726
  Beta  occ. eigenvalues --   -0.98834  -0.93381  -0.92588  -0.91693  -0.89764
  Beta  occ. eigenvalues --   -0.89278  -0.88469  -0.86209  -0.85786  -0.85438
  Beta  occ. eigenvalues --   -0.84918  -0.83725  -0.82748  -0.80243  -0.79654
  Beta  occ. eigenvalues --   -0.78376  -0.76823  -0.75004  -0.74885  -0.74111
  Beta  occ. eigenvalues --   -0.73881  -0.72775  -0.68182  -0.67749  -0.67341
  Beta  occ. eigenvalues --   -0.67059  -0.66713  -0.66236  -0.65566  -0.64968
  Beta  occ. eigenvalues --   -0.64221  -0.63089  -0.62196  -0.62047  -0.61863
  Beta  occ. eigenvalues --   -0.61206  -0.61098  -0.58836  -0.58346  -0.57830
  Beta  occ. eigenvalues --   -0.57734  -0.57668  -0.57471  -0.57395  -0.57333
  Beta  occ. eigenvalues --   -0.57199  -0.55726  -0.55639  -0.55078  -0.53635
  Beta  occ. eigenvalues --   -0.53536  -0.53326  -0.53031  -0.51954  -0.51742
  Beta  occ. eigenvalues --   -0.51321  -0.51256  -0.51176  -0.51059  -0.50778
  Beta  occ. eigenvalues --   -0.50633  -0.50230  -0.49914  -0.49363  -0.48861
  Beta  occ. eigenvalues --   -0.48772  -0.48491  -0.48094  -0.46996  -0.46787
  Beta  occ. eigenvalues --   -0.46582  -0.44576  -0.44228  -0.43909  -0.43713
  Beta  occ. eigenvalues --   -0.43281  -0.42973  -0.42761  -0.42615  -0.41940
  Beta  occ. eigenvalues --   -0.40445  -0.39457  -0.38496  -0.36685  -0.36420
  Beta  occ. eigenvalues --   -0.36020  -0.35751  -0.35585  -0.35500  -0.33409
  Beta  occ. eigenvalues --   -0.32783  -0.32441  -0.30442  -0.29012  -0.27408
  Beta virt. eigenvalues --   -0.00673   0.01426   0.03731   0.05069   0.05324
  Beta virt. eigenvalues --    0.05887   0.06951   0.09143   0.10902   0.12105
  Beta virt. eigenvalues --    0.12361   0.13029   0.14365   0.14415   0.14735

 Mulliken charges and spin densities:
               1          2
     1  C   -0.036846  -0.000000
     2  C    0.080828   0.000000
     3  N   -0.194921  -0.000000
     4  C    0.055183   0.000000
     5  C    0.107645  -0.000000
     6  F   -0.113764   0.000000
     7  C    0.052742   0.000000
     8  C   -0.183756  -0.000000
     9  C    0.154211   0.000000
    10  O   -0.237408  -0.000000
    11  C    0.051414   0.000000
    12  C   -0.009604   0.000000
    13  C   -0.158726  -0.000000
    14  S    0.207529   0.000000
    15  C   -0.019136   0.000000
    16  C    0.083980  -0.000000
    17  N   -0.192178  -0.000000
    18  C    0.060847  -0.000000
    19  C    0.114665   0.000000
    20  F   -0.110818  -0.000000
    21  C    0.059718  -0.000000
    22  C   -0.187737   0.000000
    23  C    0.152126  -0.000000
    24  O   -0.236409   0.000000
    25  C    0.051626  -0.000000
    26  C   -0.009549   0.000000
    27  C   -0.157053  -0.000000
    28  S    0.206070   0.000000
    29  C   -0.019676  -0.000000
    30  C    0.082476   0.000000
    31  N   -0.190636  -0.000000
    32  C    0.067235  -0.000000
    33  C    0.116013   0.000000
    34  F   -0.111905  -0.000000
    35  C    0.058642   0.000000
    36  C   -0.199566   0.000000
    37  C    0.137847  -0.000000
    38  O   -0.236988  -0.000000
    39  C    0.050756  -0.000000
    40  C    0.005223   0.000000
    41  C   -0.129068  -0.000000
    42  S    0.200946  -0.000000
    43  H    0.006809  -0.000000
    44  H    0.014173   0.000000
    45  H    0.017494   0.000000
    46  H    0.047236  -0.000000
    47  H    0.057474  -0.000000
    48  H    0.047532  -0.000000
    49  H    0.001916   0.000000
    50  H    0.007920  -0.000000
    51  H    0.017149  -0.000000
    52  H    0.046380   0.000000
    53  H    0.048586   0.000000
    54  H    0.058296   0.000000
    55  H    0.002512   0.000000
    56  H    0.007058  -0.000000
    57  H    0.014914   0.000000
    58  H    0.056803   0.000000
    59  H    0.046171   0.000000
    60  H    0.045392   0.000000
    61  H    0.002909  -0.000000
    62  H    0.031294  -0.000000
 Sum of Mulliken charges =  -0.00000   0.00000

 Dipole moment (field-independent basis, Debye):
    X=              0.6676    Y=              1.8109    Z=              0.2484  Tot=              1.9460
 Quadrupole moment (field-independent basis, Debye-Ang):
   XX=           -193.1864   YY=           -217.8177   ZZ=           -263.7622
   XY=             -6.3066   XZ=             -2.3643   YZ=              2.5991

 Normal termination of Gaussian 16 at Sat Jul 25 04:33:11 2020.
