 Gaussian 16, Revision A.03,
 Gaussian 16:  EM64L-G16RevA.03 25-Dec-2016

 ---------------------------------------------------------------
 #P uLC-wPBE/cc-pVDZ iop(3/107=0193800000, 3/108=0193800000) opt
 ---------------------------------------------------------------

 --------------
 H17 C40 S10 F5
 --------------
 Symbolic Z-matrix:
 Charge =  0 Multiplicity = 1

 SCF Done:  E(ULC-wPBE) =  -6012.46953153     A.U. after   17 cycles
 SCF Done:  E(ULC-wPBE) =  -6012.54038883     A.U. after   13 cycles
 SCF Done:  E(ULC-wPBE) =  -6012.59257446     A.U. after   15 cycles
 SCF Done:  E(ULC-wPBE) =  -6012.59488452     A.U. after   13 cycles
 SCF Done:  E(ULC-wPBE) =  -6012.59527465     A.U. after   12 cycles
 SCF Done:  E(ULC-wPBE) =  -6012.59533104     A.U. after   12 cycles
 SCF Done:  E(ULC-wPBE) =  -6012.59542786     A.U. after   11 cycles
 SCF Done:  E(ULC-wPBE) =  -6012.59551353     A.U. after   12 cycles
 SCF Done:  E(ULC-wPBE) =  -6012.59558482     A.U. after   13 cycles
 SCF Done:  E(ULC-wPBE) =  -6012.59561233     A.U. after   13 cycles
 SCF Done:  E(ULC-wPBE) =  -6012.59620463     A.U. after   11 cycles
 SCF Done:  E(ULC-wPBE) =  -6012.59620530     A.U. after   11 cycles
 SCF Done:  E(ULC-wPBE) =  -6012.59620516     A.U. after    8 cycles
 SCF Done:  E(ULC-wPBE) =  -6012.59620526     A.U. after    8 cycles
 SCF Done:  E(ULC-wPBE) =  -6012.59620523     A.U. after    8 cycles
 SCF Done:  E(ULC-wPBE) =  -6012.59620530     A.U. after    7 cycles
 SCF Done:  E(ULC-wPBE) =  -6012.59620544     A.U. after    7 cycles
 SCF Done:  E(ULC-wPBE) =  -6012.59620535     A.U. after    7 cycles
 SCF Done:  E(ULC-wPBE) =  -6012.59620537     A.U. after    7 cycles
 SCF Done:  E(ULC-wPBE) =  -6012.59620538     A.U. after    6 cycles
 Optimization completed.
    -- Stationary point found.

                         Standard orientation:
 ---------------------------------------------------------------------
 Center     Atomic      Atomic             Coordinates (Angstroms)
 Number     Number       Type             X           Y           Z
 ---------------------------------------------------------------------
      1          6           0       18.926936   -0.436975   -0.178726
      2          6           0       18.379658   -1.684079   -0.367604
      3          6           0       16.957001   -1.671641   -0.300346
      4          6           0       16.432679   -0.412301   -0.060569
      5         16           0       17.715663    0.767645    0.083555
      6          6           0       15.034879   -0.030330    0.065797
      7          6           0       14.483507    1.208981    0.327117
      8          9           0       15.244969    2.308654    0.510288
      9          6           0       13.068691    1.253330    0.404592
     10          6           0       12.507296    0.009049    0.193174
     11         16           0       13.741207   -1.191731   -0.115336
     12          6           0       11.102299   -0.372970    0.192294
     13          6           0       10.542258   -1.618887    0.414005
     14          6           0        9.125387   -1.616034    0.338167
     15          6           0        8.592385   -0.366982    0.061820
     16         16           0        9.865565    0.816789   -0.125506
     17          6           0        7.194610    0.003274   -0.072161
     18          6           0        6.638094    1.233179   -0.368499
     19          9           0        7.396447    2.328538   -0.584632
     20          6           0        5.223759    1.269991   -0.445190
     21          6           0        4.667556    0.029608   -0.197446
     22         16           0        5.905532   -1.157878    0.144299
     23          6           0        3.264348   -0.357427   -0.184191
     24          6           0        2.709734   -1.613019   -0.361144
     25          6           0        1.292973   -1.613084   -0.287869
     26          6           0        0.754664   -0.356712   -0.058041
     27         16           0        2.022429    0.838403    0.087342
     28          6           0       -0.644590    0.012616    0.060936
     29          6           0       -1.205838    1.251378    0.307475
     30          9           0       -0.451505    2.357118    0.479594
     31          6           0       -2.620231    1.285846    0.382251
     32          6           0       -3.171415    0.034228    0.184450
     33         16           0       -1.928962   -1.161377   -0.108850
     34          6           0       -4.573123   -0.358389    0.186207
     35          6           0       -5.123128   -1.607517    0.415512
     36          6           0       -6.539752   -1.616096    0.340845
     37          6           0       -7.082421   -0.372568    0.057522
     38         16           0       -5.819122    0.820182   -0.136943
     39          6           0       -8.482912   -0.013895   -0.078641
     40          6           0       -9.048248    1.210916   -0.379456
     41          9           0       -8.297876    2.310968   -0.598681
     42          6           0      -10.462696    1.236761   -0.457227
     43          6           0      -11.009193   -0.007133   -0.205660
     44         16           0       -9.763131   -1.184148    0.141070
     45          6           0      -12.408956   -0.406039   -0.192645
     46          6           0      -12.958435   -1.662407   -0.375460
     47          6           0      -14.376810   -1.675527   -0.305471
     48          6           0      -14.921571   -0.423180   -0.071285
     49         16           0      -13.662140    0.775850    0.091751
     50          6           0      -16.326456   -0.063080    0.052615
     51          6           0      -17.416582   -0.907993    0.160760
     52          9           0      -17.298646   -2.252626    0.164352
     53          6           0      -18.679452   -0.265683    0.272858
     54          6           0      -18.543093    1.100260    0.248203
     55         16           0      -16.892395    1.589629    0.081907
     56          1           0       19.982900   -0.151172   -0.177157
     57          1           0       18.976099   -2.584928   -0.548894
     58          1           0       16.331835   -2.563807   -0.423465
     59          1           0       12.503111    2.162955    0.630122
     60          1           0       11.139433   -2.507956    0.646604
     61          1           0        8.506479   -2.507441    0.492166
     62          1           0        4.654282    2.170421   -0.696081
     63          1           0        3.310455   -2.507865   -0.560175
     64          1           0        0.677835   -2.511918   -0.410222
     65          1           0       -3.193323    2.193367    0.596633
     66          1           0       -4.519365   -2.490895    0.652887
     67          1           0       -7.151577   -2.511344    0.500394
     68          1           0      -11.039010    2.131698   -0.712029
     69          1           0      -12.350906   -2.551372   -0.581022
     70          1           0      -14.992026   -2.569988   -0.436704
     71          1           0      -19.627298   -0.804229    0.367796
     72          1           0      -19.326622    1.859999    0.314395
 ---------------------------------------------------------------------

 The electronic state is 1-A.
 Alpha  occ. eigenvalues --  -88.22879 -88.22849 -88.22665 -88.22441 -88.22427
 Alpha  occ. eigenvalues --  -88.22226 -88.22041 -88.21962 -88.21729 -88.20936
 Alpha  occ. eigenvalues --  -24.41515 -24.41329 -24.41316 -24.41085 -24.40518
 Alpha  occ. eigenvalues --  -10.10512 -10.10358 -10.10326 -10.10080 -10.09512
 Alpha  occ. eigenvalues --  -10.07183 -10.06978 -10.06749 -10.06607 -10.06594
 Alpha  occ. eigenvalues --  -10.06408 -10.06364 -10.06355 -10.06294 -10.06247
 Alpha  occ. eigenvalues --  -10.06176 -10.06092 -10.06081 -10.05950 -10.05897
 Alpha  occ. eigenvalues --  -10.05736 -10.05584 -10.05444 -10.05223 -10.03447
 Alpha  occ. eigenvalues --  -10.03436 -10.03423 -10.03237 -10.03026 -10.02981
 Alpha  occ. eigenvalues --  -10.02897 -10.02802 -10.02710 -10.02626 -10.02616
 Alpha  occ. eigenvalues --  -10.02590 -10.02371 -10.02342 -10.01544 -10.01492
 Alpha  occ. eigenvalues --   -7.83239  -7.83212  -7.83028  -7.82815  -7.82804
 Alpha  occ. eigenvalues --   -7.82577  -7.82392  -7.82326  -7.82080  -7.81288
 Alpha  occ. eigenvalues --   -5.85272  -5.85263  -5.85079  -5.84855  -5.84846
 Alpha  occ. eigenvalues --   -5.84805  -5.84799  -5.84617  -5.84615  -5.84431
 Alpha  occ. eigenvalues --   -5.84392  -5.84381  -5.84375  -5.84368  -5.84298
 Alpha  occ. eigenvalues --   -5.84137  -5.84120  -5.84114  -5.83951  -5.83940
 Alpha  occ. eigenvalues --   -5.83913  -5.83891  -5.83707  -5.83640  -5.83522
 Alpha  occ. eigenvalues --   -5.83414  -5.83312  -5.83211  -5.82828  -5.82454
 Alpha  occ. eigenvalues --   -1.24986  -1.24800  -1.24773  -1.24554  -1.23983
 Alpha  occ. eigenvalues --   -0.95765  -0.95441  -0.95087  -0.94720  -0.94451
 Alpha  occ. eigenvalues --   -0.93576  -0.93016  -0.92520  -0.92103  -0.91439
 Alpha  occ. eigenvalues --   -0.85128  -0.84317  -0.83310  -0.82236  -0.81303
 Alpha  occ. eigenvalues --   -0.80473  -0.80288  -0.80075  -0.79808  -0.79691
 Alpha  occ. eigenvalues --   -0.79241  -0.79064  -0.78961  -0.78759  -0.78183
 Alpha  occ. eigenvalues --   -0.77699  -0.76648  -0.75336  -0.74226  -0.73439
 Alpha  occ. eigenvalues --   -0.69031  -0.68540  -0.67925  -0.67180  -0.66158
 Alpha  occ. eigenvalues --   -0.65376  -0.64741  -0.64402  -0.63787  -0.63363
 Alpha  occ. eigenvalues --   -0.62479  -0.62348  -0.61769  -0.61508  -0.61160
 Alpha  occ. eigenvalues --   -0.60751  -0.60070  -0.59696  -0.59412  -0.59229
 Alpha  occ. eigenvalues --   -0.58804  -0.58710  -0.57855  -0.57034  -0.56049
 Alpha  occ. eigenvalues --   -0.54509  -0.54350  -0.54186  -0.53897  -0.53575
 Alpha  occ. eigenvalues --   -0.52943  -0.52750  -0.52686  -0.52508  -0.51975
 Alpha  occ. eigenvalues --   -0.51917  -0.51825  -0.51555  -0.51216  -0.50868
 Alpha  occ. eigenvalues --   -0.50509  -0.50123  -0.49002  -0.48228  -0.47966
 Alpha  occ. eigenvalues --   -0.47818  -0.47794  -0.47445  -0.47203  -0.46964
 Alpha  occ. eigenvalues --   -0.46829  -0.46736  -0.46466  -0.46440  -0.46012
 Alpha  occ. eigenvalues --   -0.45763  -0.45608  -0.45512  -0.45480  -0.45219
 Alpha  occ. eigenvalues --   -0.44878  -0.44421  -0.44205  -0.44021  -0.43677
 Alpha  occ. eigenvalues --   -0.43595  -0.43442  -0.43134  -0.43025  -0.42964
 Alpha  occ. eigenvalues --   -0.42746  -0.42571  -0.42158  -0.41745  -0.41452
 Alpha  occ. eigenvalues --   -0.41016  -0.40443  -0.40210  -0.39999  -0.39706
 Alpha  occ. eigenvalues --   -0.39215  -0.38663  -0.37513  -0.36131  -0.34653
 Alpha  occ. eigenvalues --   -0.33537  -0.33194  -0.33028  -0.32868  -0.32607
 Alpha  occ. eigenvalues --   -0.32565  -0.32360  -0.32266  -0.32066  -0.31802
 Alpha  occ. eigenvalues --   -0.31535  -0.30317  -0.28534  -0.26713  -0.25081
 Alpha  occ. eigenvalues --   -0.23885
 Alpha virt. eigenvalues --   -0.04233  -0.03009  -0.01485   0.00142   0.01667
 Alpha virt. eigenvalues --    0.03242   0.04191   0.04831   0.05588   0.05838
 Alpha virt. eigenvalues --    0.06008   0.06255   0.06831   0.07016   0.07117

  Beta  occ. eigenvalues --  -88.22879 -88.22849 -88.22665 -88.22441 -88.22427
  Beta  occ. eigenvalues --  -88.22226 -88.22041 -88.21962 -88.21729 -88.20936
  Beta  occ. eigenvalues --  -24.41515 -24.41329 -24.41316 -24.41085 -24.40518
  Beta  occ. eigenvalues --  -10.10512 -10.10358 -10.10326 -10.10080 -10.09512
  Beta  occ. eigenvalues --  -10.07183 -10.06978 -10.06749 -10.06607 -10.06594
  Beta  occ. eigenvalues --  -10.06408 -10.06364 -10.06355 -10.06294 -10.06247
  Beta  occ. eigenvalues --  -10.06176 -10.06092 -10.06081 -10.05950 -10.05897
  Beta  occ. eigenvalues --  -10.05736 -10.05584 -10.05444 -10.05223 -10.03447
  Beta  occ. eigenvalues --  -10.03436 -10.03423 -10.03237 -10.03026 -10.02981
  Beta  occ. eigenvalues --  -10.02897 -10.02802 -10.02710 -10.02626 -10.02616
  Beta  occ. eigenvalues --  -10.02590 -10.02371 -10.02342 -10.01544 -10.01492
  Beta  occ. eigenvalues --   -7.83239  -7.83212  -7.83028  -7.82815  -7.82804
  Beta  occ. eigenvalues --   -7.82577  -7.82392  -7.82326  -7.82080  -7.81288
  Beta  occ. eigenvalues --   -5.85272  -5.85263  -5.85079  -5.84855  -5.84846
  Beta  occ. eigenvalues --   -5.84805  -5.84799  -5.84617  -5.84615  -5.84431
  Beta  occ. eigenvalues --   -5.84392  -5.84381  -5.84375  -5.84368  -5.84298
  Beta  occ. eigenvalues --   -5.84137  -5.84120  -5.84114  -5.83951  -5.83940
  Beta  occ. eigenvalues --   -5.83913  -5.83891  -5.83707  -5.83640  -5.83522
  Beta  occ. eigenvalues --   -5.83414  -5.83312  -5.83211  -5.82828  -5.82454
  Beta  occ. eigenvalues --   -1.24986  -1.24800  -1.24773  -1.24554  -1.23983
  Beta  occ. eigenvalues --   -0.95765  -0.95441  -0.95087  -0.94720  -0.94451
  Beta  occ. eigenvalues --   -0.93576  -0.93016  -0.92520  -0.92103  -0.91439
  Beta  occ. eigenvalues --   -0.85128  -0.84317  -0.83310  -0.82236  -0.81303
  Beta  occ. eigenvalues --   -0.80473  -0.80288  -0.80075  -0.79808  -0.79691
  Beta  occ. eigenvalues --   -0.79241  -0.79064  -0.78961  -0.78759  -0.78183
  Beta  occ. eigenvalues --   -0.77699  -0.76648  -0.75336  -0.74226  -0.73439
  Beta  occ. eigenvalues --   -0.69031  -0.68540  -0.67925  -0.67180  -0.66158
  Beta  occ. eigenvalues --   -0.65376  -0.64741  -0.64402  -0.63787  -0.63363
  Beta  occ. eigenvalues --   -0.62479  -0.62348  -0.61769  -0.61508  -0.61160
  Beta  occ. eigenvalues --   -0.60751  -0.60070  -0.59696  -0.59412  -0.59229
  Beta  occ. eigenvalues --   -0.58804  -0.58710  -0.57855  -0.57034  -0.56049
  Beta  occ. eigenvalues --   -0.54509  -0.54350  -0.54186  -0.53897  -0.53575
  Beta  occ. eigenvalues --   -0.52943  -0.52750  -0.52686  -0.52508  -0.51975
  Beta  occ. eigenvalues --   -0.51917  -0.51825  -0.51555  -0.51216  -0.50868
  Beta  occ. eigenvalues --   -0.50509  -0.50123  -0.49002  -0.48228  -0.47966
  Beta  occ. eigenvalues --   -0.47818  -0.47794  -0.47445  -0.47203  -0.46964
  Beta  occ. eigenvalues --   -0.46829  -0.46736  -0.46466  -0.46440  -0.46012
  Beta  occ. eigenvalues --   -0.45763  -0.45608  -0.45512  -0.45480  -0.45219
  Beta  occ. eigenvalues --   -0.44878  -0.44421  -0.44205  -0.44021  -0.43677
  Beta  occ. eigenvalues --   -0.43595  -0.43442  -0.43134  -0.43025  -0.42964
  Beta  occ. eigenvalues --   -0.42746  -0.42571  -0.42158  -0.41745  -0.41452
  Beta  occ. eigenvalues --   -0.41016  -0.40443  -0.40210  -0.39999  -0.39706
  Beta  occ. eigenvalues --   -0.39215  -0.38663  -0.37513  -0.36131  -0.34653
  Beta  occ. eigenvalues --   -0.33537  -0.33194  -0.33028  -0.32868  -0.32607
  Beta  occ. eigenvalues --   -0.32565  -0.32360  -0.32266  -0.32066  -0.31802
  Beta  occ. eigenvalues --   -0.31535  -0.30317  -0.28534  -0.26713  -0.25081
  Beta  occ. eigenvalues --   -0.23885
  Beta virt. eigenvalues --   -0.04233  -0.03009  -0.01485   0.00142   0.01667
  Beta virt. eigenvalues --    0.03242   0.04191   0.04831   0.05588   0.05838
  Beta virt. eigenvalues --    0.06008   0.06255   0.06831   0.07016   0.07117

 Mulliken charges and spin densities:
               1          2
     1  C   -0.129955  -0.000000
     2  C    0.072691   0.000000
     3  C    0.001281   0.000000
     4  C   -0.110655  -0.000000
     5  S    0.162656  -0.000000
     6  C   -0.107945   0.000000
     7  C    0.107523   0.000000
     8  F   -0.118114  -0.000000
     9  C    0.049004  -0.000000
    10  C   -0.109762   0.000000
    11  S    0.159746  -0.000000
    12  C   -0.112824   0.000000
    13  C    0.042654   0.000000
    14  C    0.029900   0.000000
    15  C   -0.098513  -0.000000
    16  S    0.170910  -0.000000
    17  C   -0.121420  -0.000000
    18  C    0.106895   0.000000
    19  F   -0.116212  -0.000000
    20  C    0.051344  -0.000000
    21  C   -0.107323   0.000000
    22  S    0.162019  -0.000000
    23  C   -0.114441  -0.000000
    24  C    0.042751   0.000000
    25  C    0.030454  -0.000000
    26  C   -0.097703  -0.000000
    27  S    0.172031  -0.000000
    28  C   -0.121960   0.000000
    29  C    0.107318   0.000000
    30  F   -0.115884  -0.000000
    31  C    0.051712  -0.000000
    32  C   -0.107106   0.000000
    33  S    0.163033  -0.000000
    34  C   -0.114702  -0.000000
    35  C    0.043036  -0.000000
    36  C    0.030595   0.000000
    37  C   -0.097582  -0.000000
    38  S    0.172438   0.000000
    39  C   -0.122148   0.000000
    40  C    0.107076  -0.000000
    41  F   -0.115815  -0.000000
    42  C    0.051725   0.000000
    43  C   -0.106377   0.000000
    44  S    0.165241   0.000000
    45  C   -0.112544  -0.000000
    46  C    0.045928   0.000000
    47  C    0.029712   0.000000
    48  C   -0.081303  -0.000000
    49  S    0.160615   0.000000
    50  C   -0.136590   0.000000
    51  C    0.092655  -0.000000
    52  F   -0.119998   0.000000
    53  C    0.073985  -0.000000
    54  C   -0.120495   0.000000
    55  S    0.173144   0.000000
    56  H    0.022621   0.000000
    57  H   -0.012270   0.000000
    58  H   -0.008838   0.000000
    59  H    0.002446  -0.000000
    60  H   -0.009451   0.000000
    61  H   -0.008987   0.000000
    62  H    0.004207   0.000000
    63  H   -0.008613   0.000000
    64  H   -0.008132  -0.000000
    65  H    0.004613   0.000000
    66  H   -0.008259   0.000000
    67  H   -0.007538   0.000000
    68  H    0.003360   0.000000
    69  H   -0.007172  -0.000000
    70  H   -0.009273  -0.000000
    71  H    0.005699  -0.000000
    72  H    0.032887  -0.000000
 Sum of Mulliken charges =  -0.00000   0.00000

 Dipole moment (field-independent basis, Debye):
    X=             -6.6382    Y=             -2.7517    Z=              0.0206  Tot=              7.1859
 Quadrupole moment (field-independent basis, Debye-Ang):
   XX=           -287.6513   YY=           -356.1838   ZZ=           -391.6091
   XY=            -28.8469   XZ=             -2.1880   YZ=              0.7029

 Normal termination of Gaussian 16 at Fri Jul 24 05:05:07 2020.
