 Gaussian 16, Revision A.03,
 Gaussian 16:  EM64L-G16RevA.03 25-Dec-2016

 ---------------------------------------------------------------
 #P uLC-wPBE/cc-pVDZ iop(3/107=0313600000, 3/108=0313600000) opt
 ---------------------------------------------------------------

 --------
 H6 C8 S2
 --------
 Symbolic Z-matrix:
 Charge =  0 Multiplicity = 1

 SCF Done:  E(ULC-wPBE) =  -1104.32288027     A.U. after   16 cycles
 SCF Done:  E(ULC-wPBE) =  -1104.34812838     A.U. after   14 cycles
 SCF Done:  E(ULC-wPBE) =  -1104.35118220     A.U. after   13 cycles
 SCF Done:  E(ULC-wPBE) =  -1104.35134227     A.U. after   12 cycles
 SCF Done:  E(ULC-wPBE) =  -1104.35135841     A.U. after   12 cycles
 SCF Done:  E(ULC-wPBE) =  -1104.35139175     A.U. after   11 cycles
 SCF Done:  E(ULC-wPBE) =  -1104.35139534     A.U. after    9 cycles
 SCF Done:  E(ULC-wPBE) =  -1104.35139806     A.U. after    9 cycles
 SCF Done:  E(ULC-wPBE) =  -1104.35142165     A.U. after   12 cycles
 SCF Done:  E(ULC-wPBE) =  -1104.35106050     A.U. after   16 cycles
 SCF Done:  E(ULC-wPBE) =  -1104.35146561     A.U. after   11 cycles
 SCF Done:  E(ULC-wPBE) =  -1104.35149797     A.U. after   13 cycles
 SCF Done:  E(ULC-wPBE) =  -1104.35154303     A.U. after   11 cycles
 SCF Done:  E(ULC-wPBE) =  -1104.35160593     A.U. after   12 cycles
 SCF Done:  E(ULC-wPBE) =  -1104.35175984     A.U. after   13 cycles
 SCF Done:  E(ULC-wPBE) =  -1104.35179273     A.U. after   12 cycles
 SCF Done:  E(ULC-wPBE) =  -1104.35180654     A.U. after   12 cycles
 SCF Done:  E(ULC-wPBE) =  -1104.35180887     A.U. after   12 cycles
 SCF Done:  E(ULC-wPBE) =  -1104.35181239     A.U. after   11 cycles
 SCF Done:  E(ULC-wPBE) =  -1104.35181241     A.U. after    8 cycles
 Optimization completed.    -- Stationary point found.

                         Standard orientation:
 ---------------------------------------------------------------------
 Center     Atomic      Atomic             Coordinates (Angstroms)
 Number     Number       Type             X           Y           Z
 ---------------------------------------------------------------------
      1          6           0        3.186865   -0.147306   -0.074179
      2          6           0        2.819821    1.121702    0.275580
      3          6           0        1.406068    1.273445    0.371570
      4          6           0        0.722667    0.115914    0.090621
      5         16           0        1.820585   -1.164572   -0.305936
      6          6           0       -0.722662   -0.115979    0.090625
      7          6           0       -1.406116   -1.273469    0.371550
      8          6           0       -2.819871   -1.121664    0.275577
      9          6           0       -3.186863    0.147352   -0.074185
     10         16           0       -1.820541    1.164568   -0.305946
     11          1           0        4.193457   -0.544290   -0.212192
     12          1           0        3.535468    1.924122    0.467835
     13          1           0        0.906256    2.202046    0.657942
     14          1           0       -0.906341   -2.202111    0.657867
     15          1           0       -3.535538   -1.924052    0.467883
     16          1           0       -4.193440    0.544383   -0.212191
 ---------------------------------------------------------------------

 The electronic state is 1-A.
 Alpha  occ. eigenvalues --  -88.27493 -88.27493 -10.11571 -10.11560 -10.10295
 Alpha  occ. eigenvalues --  -10.10295 -10.08124 -10.08124 -10.08051 -10.08050
 Alpha  occ. eigenvalues --   -7.88098  -7.88097  -5.89890  -5.89889  -5.89382
 Alpha  occ. eigenvalues --   -5.89382  -5.89004  -5.89004  -1.00751  -0.98565
 Alpha  occ. eigenvalues --   -0.87330  -0.85211  -0.83977  -0.80553  -0.69930
 Alpha  occ. eigenvalues --   -0.67839  -0.64849  -0.63130  -0.62557  -0.57164
 Alpha  occ. eigenvalues --   -0.51734  -0.50914  -0.50397  -0.49210  -0.48589
 Alpha  occ. eigenvalues --   -0.48190  -0.46604  -0.44538  -0.43306  -0.37043
 Alpha  occ. eigenvalues --   -0.34835  -0.34604  -0.29899
 Alpha virt. eigenvalues --    0.02748   0.08679   0.11622   0.11635   0.14101
 Alpha virt. eigenvalues --    0.14980   0.16081   0.16857   0.18573   0.19249
 Alpha virt. eigenvalues --    0.20757   0.21467   0.23714   0.26450   0.32283

  Beta  occ. eigenvalues --  -88.27493 -88.27493 -10.11571 -10.11560 -10.10295
  Beta  occ. eigenvalues --  -10.10295 -10.08124 -10.08124 -10.08051 -10.08050
  Beta  occ. eigenvalues --   -7.88098  -7.88097  -5.89890  -5.89889  -5.89382
  Beta  occ. eigenvalues --   -5.89382  -5.89004  -5.89004  -1.00751  -0.98565
  Beta  occ. eigenvalues --   -0.87330  -0.85211  -0.83977  -0.80553  -0.69930
  Beta  occ. eigenvalues --   -0.67839  -0.64849  -0.63130  -0.62557  -0.57164
  Beta  occ. eigenvalues --   -0.51734  -0.50914  -0.50397  -0.49210  -0.48589
  Beta  occ. eigenvalues --   -0.48190  -0.46604  -0.44538  -0.43306  -0.37043
  Beta  occ. eigenvalues --   -0.34835  -0.34604  -0.29899
  Beta virt. eigenvalues --    0.02748   0.08679   0.11622   0.11635   0.14101
  Beta virt. eigenvalues --    0.14980   0.16081   0.16857   0.18573   0.19249
  Beta virt. eigenvalues --    0.20757   0.21467   0.23714   0.26450   0.32283

 Mulliken charges and spin densities:
               1          2
     1  C   -0.137236  -0.000000
     2  C    0.054112   0.000000
     3  C    0.006050  -0.000000
     4  C   -0.119142   0.000000
     5  S    0.161535  -0.000000
     6  C   -0.119139  -0.000000
     7  C    0.006042   0.000000
     8  C    0.054117  -0.000000
     9  C   -0.137236   0.000000
    10  S    0.161526  -0.000000
    11  H    0.032961  -0.000000
    12  H    0.000635   0.000000
    13  H    0.001090   0.000000
    14  H    0.001088   0.000000
    15  H    0.000634   0.000000
    16  H    0.032963   0.000000
 Sum of Mulliken charges =  -0.00000   0.00000

 Dipole moment (field-independent basis, Debye):
    X=              0.0000    Y=             -0.0000    Z=              0.2612  Tot=              0.2612
 Quadrupole moment (field-independent basis, Debye-Ang):
   XX=            -59.2214   YY=            -67.0682   ZZ=            -76.1730
   XY=              1.2103   XZ=             -0.0002   YZ=              0.0000

 Normal termination of Gaussian 16 at Thu Jul 23 20:00:43 2020.
