 Gaussian 16, Revision A.03,
 Gaussian 16:  EM64L-G16RevA.03 25-Dec-2016

 ---------------------------------------------------------------
 #P uLC-wPBE/cc-pVDZ iop(3/107=0492900000, 3/108=0492900000) opt
 ---------------------------------------------------------------

 --------------
 H5 C8 S1 N2 F1
 --------------
 Symbolic Z-matrix:
 Charge =  0 Multiplicity = 1

 SCF Done:  E(ULC-wPBE) =  -914.921987191     A.U. after   16 cycles
 SCF Done:  E(ULC-wPBE) =  -914.945352513     A.U. after   14 cycles
 SCF Done:  E(ULC-wPBE) =  -914.947966225     A.U. after   14 cycles
 SCF Done:  E(ULC-wPBE) =  -914.948049812     A.U. after   13 cycles
 SCF Done:  E(ULC-wPBE) =  -914.948124062     A.U. after   12 cycles
 SCF Done:  E(ULC-wPBE) =  -914.948130809     A.U. after   10 cycles
 SCF Done:  E(ULC-wPBE) =  -914.948133191     A.U. after    9 cycles
 SCF Done:  E(ULC-wPBE) =  -914.948133574     A.U. after    8 cycles
 Optimization completed.
    -- Stationary point found.

                         Standard orientation:
 ---------------------------------------------------------------------
 Center     Atomic      Atomic             Coordinates (Angstroms)
 Number     Number       Type             X           Y           Z
 ---------------------------------------------------------------------
      1          6           0        3.486018   -0.080589   -0.000234
      2          6           0        2.728871   -1.236810   -0.000855
      3          7           0        1.407769   -1.218220   -0.000352
      4          6           0        0.828699   -0.020277    0.000468
      5          7           0        1.455141    1.150015    0.000740
      6          6           0        2.776653    1.105685    0.000525
      7          6           0       -0.632833   -0.020355    0.000276
      8          6           0       -1.510556    1.021505   -0.000253
      9          9           0       -1.163943    2.297975   -0.000527
     10          6           0       -2.873226    0.637716   -0.000285
     11          6           0       -2.994834   -0.712157    0.000010
     12         16           0       -1.491788   -1.511135    0.000348
     13          1           0        4.571165   -0.102769   -0.000334
     14          1           0        3.199338   -2.220720   -0.001069
     15          1           0        3.290228    2.067986    0.000759
     16          1           0       -3.694099    1.346160   -0.000700
     17          1           0       -3.915662   -1.285146   -0.000109
 ---------------------------------------------------------------------

 The electronic state is 1-A.
 Alpha  occ. eigenvalues --  -88.37588 -24.54854 -14.27602 -14.27266 -10.26385
 Alpha  occ. eigenvalues --  -10.26236 -10.23349 -10.23217 -10.21260 -10.20222
 Alpha  occ. eigenvalues --  -10.19008 -10.18288  -7.98523  -5.99617  -5.99058
 Alpha  occ. eigenvalues --   -5.98647  -1.39894  -1.19688  -1.09587  -1.08231
 Alpha  occ. eigenvalues --   -1.00038  -0.92761  -0.91726  -0.83701  -0.83154
 Alpha  occ. eigenvalues --   -0.75002  -0.73841  -0.71372  -0.67378  -0.65496
 Alpha  occ. eigenvalues --   -0.63112  -0.61606  -0.59898  -0.59702  -0.58203
 Alpha  occ. eigenvalues --   -0.56450  -0.54058  -0.52674  -0.50864  -0.48135
 Alpha  occ. eigenvalues --   -0.44881  -0.44610  -0.43052  -0.38722  -0.36531
 Alpha  occ. eigenvalues --   -0.33984
 Alpha virt. eigenvalues --    0.02471   0.04947   0.10668   0.14372   0.16534
 Alpha virt. eigenvalues --    0.17878   0.18268   0.20262   0.21363   0.22796
 Alpha virt. eigenvalues --    0.24106   0.27614   0.29657   0.33679   0.33966

  Beta  occ. eigenvalues --  -88.37588 -24.54854 -14.27602 -14.27266 -10.26385
  Beta  occ. eigenvalues --  -10.26236 -10.23349 -10.23217 -10.21260 -10.20222
  Beta  occ. eigenvalues --  -10.19008 -10.18288  -7.98523  -5.99617  -5.99058
  Beta  occ. eigenvalues --   -5.98647  -1.39894  -1.19688  -1.09587  -1.08231
  Beta  occ. eigenvalues --   -1.00038  -0.92761  -0.91726  -0.83701  -0.83154
  Beta  occ. eigenvalues --   -0.75002  -0.73841  -0.71372  -0.67378  -0.65496
  Beta  occ. eigenvalues --   -0.63112  -0.61606  -0.59898  -0.59702  -0.58203
  Beta  occ. eigenvalues --   -0.56450  -0.54058  -0.52674  -0.50864  -0.48135
  Beta  occ. eigenvalues --   -0.44881  -0.44610  -0.43052  -0.38722  -0.36531
  Beta  occ. eigenvalues --   -0.33984
  Beta virt. eigenvalues --    0.02471   0.04947   0.10668   0.14372   0.16534
  Beta virt. eigenvalues --    0.17878   0.18268   0.20262   0.21363   0.22796
  Beta virt. eigenvalues --    0.24106   0.27614   0.29657   0.33679   0.33966

 Mulliken charges and spin densities:
               1          2
     1  C   -0.125387  -0.000000
     2  C    0.121997   0.000000
     3  N   -0.236630   0.000000
     4  C    0.249479  -0.000000
     5  N   -0.212726   0.000000
     6  C    0.115925  -0.000000
     7  C   -0.245636   0.000000
     8  C    0.139125  -0.000000
     9  F   -0.108168  -0.000000
    10  C    0.018641   0.000000
    11  C   -0.146129  -0.000000
    12  S    0.216177  -0.000000
    13  H    0.032834   0.000000
    14  H    0.043411   0.000000
    15  H    0.042740   0.000000
    16  H    0.034544   0.000000
    17  H    0.059803   0.000000
 Sum of Mulliken charges =  -0.00000  -0.00000

 Dipole moment (field-independent basis, Debye):
    X=              1.1008    Y=             -0.7510    Z=             -0.0007  Tot=              1.3326
 Quadrupole moment (field-independent basis, Debye-Ang):
   XX=            -50.6362   YY=            -75.0237   ZZ=            -76.1072
   XY=              0.7979   XZ=              0.0008   YZ=             -0.0004

 Normal termination of Gaussian 16 at Fri Jul 24 12:18:31 2020.
