 Gaussian 16, Revision A.03,
 Gaussian 16:  EM64L-G16RevA.03 25-Dec-2016

 ---------------------------------------------------------------
 #P uLC-wPBE/cc-pVDZ iop(3/107=0447500000, 3/108=0447500000) opt
 ---------------------------------------------------------------

 ---------------
 H58 C70 S14 O14
 ---------------
 Symbolic Z-matrix:
 Charge =  0 Multiplicity = 1

 SCF Done:  E(ULC-wPBE) =  -9325.74493142     A.U. after   16 cycles
 SCF Done:  E(ULC-wPBE) =  -9325.84740980     A.U. after   13 cycles
 SCF Done:  E(ULC-wPBE) =  -9325.96293460     A.U. after   14 cycles
 SCF Done:  E(ULC-wPBE) =  -9326.00003015     A.U. after   14 cycles
 SCF Done:  E(ULC-wPBE) =  -9326.00677204     A.U. after   13 cycles
 SCF Done:  E(ULC-wPBE) =  -9326.00919710     A.U. after   13 cycles
 SCF Done:  E(ULC-wPBE) =  -9326.01302403     A.U. after   14 cycles
 SCF Done:  E(ULC-wPBE) =  -9326.00931577     A.U. after   17 cycles
 SCF Done:  E(ULC-wPBE) =  -9326.01806481     A.U. after   14 cycles
 SCF Done:  E(ULC-wPBE) =  -9326.02368140     A.U. after   16 cycles
 SCF Done:  E(ULC-wPBE) =  -9326.03699334     A.U. after   12 cycles
 SCF Done:  E(ULC-wPBE) =  -9326.03699402     A.U. after   10 cycles
 SCF Done:  E(ULC-wPBE) =  -9326.03699425     A.U. after   10 cycles
 SCF Done:  E(ULC-wPBE) =  -9326.03699502     A.U. after   10 cycles
 SCF Done:  E(ULC-wPBE) =  -9326.03699516     A.U. after    9 cycles
 SCF Done:  E(ULC-wPBE) =  -9326.03699528     A.U. after    8 cycles
 SCF Done:  E(ULC-wPBE) =  -9326.03699516     A.U. after    7 cycles
 SCF Done:  E(ULC-wPBE) =  -9326.03699510     A.U. after    6 cycles
 SCF Done:  E(ULC-wPBE) =  -9326.03699511     A.U. after    6 cycles
 SCF Done:  E(ULC-wPBE) =  -9326.03699523     A.U. after    5 cycles
 Optimization completed.
    -- Stationary point found.

                         Standard orientation:
 ---------------------------------------------------------------------
 Center     Atomic      Atomic             Coordinates (Angstroms)
 Number     Number       Type             X           Y           Z
 ---------------------------------------------------------------------
      1          6           0       21.165827    7.636895   -1.548755
      2          6           0       20.859931    7.299376   -0.269331
      3          6           0       19.806368    6.343883   -0.220038
      4          8           0       19.266389    5.801767    0.895101
      5          6           0       19.789088    6.208914    2.133320
      6          6           0       19.335432    5.976975   -1.456129
      7         16           0       20.202879    6.820129   -2.691567
      8          6           0       18.271322    5.029842   -1.742529
      9          6           0       17.803617    4.654268   -2.977583
     10          8           0       18.348611    5.186733   -4.094781
     11          6           0       17.807795    4.794515   -5.330154
     12          6           0       16.743291    3.712530   -2.927226
     13          6           0       16.418190    3.374673   -1.645174
     14         16           0       17.402623    4.194456   -0.503759
     15          6           0       15.388545    2.433583   -1.223308
     16          6           0       14.991690    1.304585   -1.880502
     17          6           0       13.954863    0.623955   -1.191667
     18          8           0       13.354535   -0.523382   -1.578087
     19          6           0       13.785984   -1.111182   -2.778905
     20          6           0       13.575436    1.231365   -0.019712
     21         16           0       14.499620    2.671486    0.224947
     22          6           0       12.554331    0.781915    0.908499
     23          6           0       12.167198    1.393306    2.076009
     24          8           0       12.762772    2.543858    2.461500
     25          6           0       12.296698    3.154380    3.637510
     26          6           0       11.129415    0.711943    2.762661
     27          6           0       10.740887   -0.421419    2.108682
     28         16           0       11.637578   -0.662839    0.666459
     29          6           0        9.710976   -1.363917    2.529521
     30          6           0        9.377325   -1.696122    3.811053
     31          6           0        8.305240   -2.631775    3.869815
     32          8           0        7.738243   -3.125423    4.987699
     33          6           0        8.297234   -2.733581    6.213931
     34          6           0        7.854032   -3.009735    2.633303
     35         16           0        8.733922   -2.197186    1.392374
     36          6           0        6.787895   -3.954468    2.331741
     37          6           0        6.667320   -5.243499    2.778434
     38          8           0        7.610949   -5.786142    3.572100
     39          6           0        7.379771   -7.088805    4.040275
     40          6           0        5.489652   -5.890127    2.305729
     41          6           0        4.744318   -5.086634    1.492188
     42         16           0        5.462059   -3.540186    1.310069
     43          6           0        3.497809   -5.437737    0.819714
     44          6           0        3.148936   -6.662806    0.329485
     45          6           0        1.845053   -6.668976   -0.243548
     46          8           0        1.214515   -7.732094   -0.778919
     47          6           0        1.938619   -8.931722   -0.856795
     48          6           0        1.232498   -5.444793   -0.196723
     49         16           0        2.251582   -4.286070    0.573231
     50          6           0       -0.087077   -5.094178   -0.701106
     51          6           0       -0.582464   -5.303812   -1.960456
     52          8           0        0.179790   -5.875488   -2.911963
     53          6           0       -0.410324   -6.071951   -4.170747
     54          6           0       -1.915894   -4.829815   -2.122618
     55          6           0       -2.409753   -4.259384   -0.984965
     56         16           0       -1.268982   -4.326100    0.294013
     57          6           0       -3.718861   -3.652303   -0.786418
     58          6           0       -4.055299   -2.666309    0.095181
     59          6           0       -5.426755   -2.314664    0.003031
     60          8           0       -6.061839   -1.372292    0.733222
     61          6           0       -5.308232   -0.678352    1.695694
     62          6           0       -6.120457   -3.028461   -0.943353
     63         16           0       -5.067426   -4.161130   -1.716805
     64          6           0       -7.525594   -2.899975   -1.281869
     65          6           0       -8.224993   -3.625916   -2.214864
     66          8           0       -7.594511   -4.581837   -2.934178
     67          6           0       -8.353148   -5.282982   -3.885774
     68          6           0       -9.590376   -3.256589   -2.322861
     69          6           0       -9.919151   -2.250663   -1.460069
     70         16           0       -8.573870   -1.759274   -0.515231
     71          6           0      -11.228536   -1.633052   -1.295098
     72          6           0      -12.444103   -2.238318   -1.437639
     73          6           0      -13.517163   -1.337944   -1.213488
     74          8           0      -14.835714   -1.632162   -1.275762
     75          6           0      -15.190217   -2.964778   -1.542297
     76          6           0      -13.115400   -0.063048   -0.897261
     77         16           0      -11.389302    0.028029   -0.896153
     78          6           0      -13.963324    1.077157   -0.603407
     79          6           0      -13.559851    2.350640   -0.284952
     80          8           0      -12.242114    2.642984   -0.225706
     81          6           0      -11.882947    3.961680    0.101193
     82          6           0      -14.631425    3.252083   -0.056188
     83          6           0      -15.848050    2.650196   -0.201429
     84         16           0      -15.690535    0.989099   -0.602390
     85          6           0      -17.164074    3.255172   -0.054121
     86          6           0      -18.331292    2.870696   -0.648215
     87          6           0      -19.418547    3.703625   -0.276391
     88          8           0      -20.696593    3.586132   -0.700855
     89          6           0      -20.991501    2.535947   -1.586323
     90          6           0      -19.075101    4.711765    0.589802
     91         16           0      -17.389578    4.617840    0.964001
     92          6           0      -19.950477    5.728052    1.147999
     93          6           0      -19.606717    6.728769    2.022570
     94          8           0      -18.328711    6.840220    2.452417
     95          6           0      -18.040145    7.866875    3.366112
     96          6           0      -20.695450    7.569759    2.386776
     97          6           0      -21.846404    7.185759    1.776615
     98         16           0      -21.635154    5.827310    0.771552
     99          1           0       21.925682    8.339249   -1.878009
    100          1           0       21.363964    7.713691    0.598633
    101          1           0       19.230358    5.664163    2.899488
    102          1           0       19.654742    7.288951    2.291996
    103          1           0       20.856215    5.957978    2.222339
    104          1           0       16.745247    5.066844   -5.409681
    105          1           0       18.371350    5.330099   -6.099257
    106          1           0       17.919358    3.712559   -5.493472
    107          1           0       16.216891    3.320518   -3.792177
    108          1           0       15.452087    0.966521   -2.803863
    109          1           0       14.847793   -1.393190   -2.730001
    110          1           0       13.183260   -2.013241   -2.915822
    111          1           0       13.625935   -0.439910   -3.635207
    112          1           0       11.234453    3.427006    3.555691
    113          1           0       12.439594    2.503658    4.512653
    114          1           0       12.889077    4.063994    3.769698
    115          1           0       10.662805    1.052542    3.682002
    116          1           0        9.901029   -1.294102    4.673190
    117          1           0        8.220920   -1.646741    6.367709
    118          1           0        9.351339   -3.037584    6.294831
    119          1           0        7.721128   -3.240645    6.993262
    120          1           0        6.459706   -7.146865    4.640452
    121          1           0        7.320087   -7.813964    3.214828
    122          1           0        8.233291   -7.346420    4.673898
    123          1           0        5.186179   -6.899897    2.565576
    124          1           0        3.817275   -7.517921    0.366214
    125          1           0        2.218084   -9.304594    0.140038
    126          1           0        1.278143   -9.661928   -1.333126
    127          1           0        2.845779   -8.818854   -1.468665
    128          1           0        0.346302   -6.555796   -4.795007
    129          1           0       -0.699327   -5.118919   -4.638127
    130          1           0       -1.292232   -6.726312   -4.107151
    131          1           0       -2.481799   -4.871072   -3.048988
    132          1           0       -3.337349   -2.200009    0.763816
    133          1           0       -4.897263   -1.361457    2.453016
    134          1           0       -4.487811   -0.111765    1.231971
    135          1           0       -5.995158    0.020625    2.180669
    136          1           0       -7.675813   -6.003677   -4.352420
    137          1           0       -9.185209   -5.827081   -3.415446
    138          1           0       -8.749559   -4.610208   -4.660180
    139          1           0      -10.298273   -3.686423   -3.024993
    140          1           0      -12.554270   -3.294735   -1.662891
    141          1           0      -16.283140   -3.002374   -1.534898
    142          1           0      -14.803189   -3.646408   -0.770969
    143          1           0      -14.827917   -3.288353   -2.529112
    144          1           0      -12.252326    4.243417    1.097891
    145          1           0      -10.789898    3.992745    0.103389
    146          1           0      -12.260517    4.677553   -0.643227
    147          1           0      -14.517549    4.305875    0.181177
    148          1           0      -18.395090    2.037560   -1.342221
    149          1           0      -20.428958    2.631763   -2.526408
    150          1           0      -22.061242    2.604734   -1.802722
    151          1           0      -20.779553    1.556394   -1.133632
    152          1           0      -16.974432    7.785472    3.597800
    153          1           0      -18.617646    7.753572    4.295222
    154          1           0      -18.237469    8.858817    2.933833
    155          1           0      -20.628066    8.414551    3.065633
    156          1           0      -22.825169    7.645878    1.873482
 ---------------------------------------------------------------------

 Alpha virt. eigenvalues --    0.56594   0.56686   0.56857   0.56891   0.57052
 Alpha virt. eigenvalues --    0.57093   0.57236   0.57267   0.57406   0.57459
 Alpha virt. eigenvalues --    0.57484   0.57599   0.57731   0.57814   0.57866

  Beta  occ. eigenvalues --  -88.34026 -88.34010 -88.33935 -88.33924 -88.33908
  Beta  occ. eigenvalues --  -88.33902 -88.33877 -88.33855 -88.33819 -88.33806
  Beta  occ. eigenvalues --  -88.33779 -88.33754 -88.33678 -88.33640 -19.03804
  Beta  occ. eigenvalues --  -19.03750 -19.03668 -19.03635 -19.03605 -19.03594
  Beta  occ. eigenvalues --  -19.03591 -19.03579 -19.03556 -19.03496 -19.02999
  Beta  occ. eigenvalues --  -19.02987 -19.02962 -19.02899 -10.20366 -10.20363
  Beta  occ. eigenvalues --  -10.20348 -10.20313 -10.20313 -10.20305 -10.20300
  Beta  occ. eigenvalues --  -10.20286 -10.20257 -10.20249 -10.20185 -10.20178
  Beta  occ. eigenvalues --  -10.20162 -10.20134 -10.20083 -10.20028 -10.20014
  Beta  occ. eigenvalues --  -10.20007 -10.19977 -10.19931 -10.19892 -10.19889
  Beta  occ. eigenvalues --  -10.19842 -10.19807 -10.19713 -10.19699 -10.19673
  Beta  occ. eigenvalues --  -10.19532 -10.18786 -10.18767 -10.18698 -10.18689
  Beta  occ. eigenvalues --  -10.18348 -10.18309 -10.18299 -10.18272 -10.18255
  Beta  occ. eigenvalues --  -10.18240 -10.18202 -10.18164 -10.17339 -10.17318
  Beta  occ. eigenvalues --  -10.17309 -10.17295 -10.17234 -10.17202 -10.17194
  Beta  occ. eigenvalues --  -10.17155 -10.17094 -10.17032 -10.16895 -10.16860
  Beta  occ. eigenvalues --  -10.16846 -10.16823 -10.16738 -10.16716 -10.14988
  Beta  occ. eigenvalues --  -10.14980 -10.14895 -10.14849 -10.14839 -10.14834
  Beta  occ. eigenvalues --  -10.14829 -10.14793 -10.14746 -10.14736 -10.14721
  Beta  occ. eigenvalues --  -10.14712 -10.14697 -10.14689  -7.94887  -7.94869
  Beta  occ. eigenvalues --   -7.94789  -7.94767  -7.94729  -7.94690  -7.94664
  Beta  occ. eigenvalues --   -7.94642  -7.94615  -7.94594  -7.94574  -7.94542
  Beta  occ. eigenvalues --   -7.94481  -7.94442  -5.96211  -5.96194  -5.96117
  Beta  occ. eigenvalues --   -5.96092  -5.96078  -5.96037  -5.96012  -5.95990
  Beta  occ. eigenvalues --   -5.95964  -5.95941  -5.95923  -5.95889  -5.95817
  Beta  occ. eigenvalues --   -5.95778  -5.95674  -5.95657  -5.95581  -5.95555
  Beta  occ. eigenvalues --   -5.95520  -5.95476  -5.95450  -5.95428  -5.95406
  Beta  occ. eigenvalues --   -5.95381  -5.95364  -5.95328  -5.95254  -5.95233
  Beta  occ. eigenvalues --   -5.95217  -5.95216  -5.95127  -5.95113  -5.95058
  Beta  occ. eigenvalues --   -5.95028  -5.95002  -5.94980  -5.94943  -5.94931
  Beta  occ. eigenvalues --   -5.94904  -5.94881  -5.94840  -5.94801  -1.23487
  Beta  occ. eigenvalues --   -1.23438  -1.23400  -1.23299  -1.23286  -1.23271
  Beta  occ. eigenvalues --   -1.23270  -1.23250  -1.23178  -1.23132  -1.23108
  Beta  occ. eigenvalues --   -1.23079  -1.22677  -1.22638  -1.08105  -1.07921
  Beta  occ. eigenvalues --   -1.07764  -1.07558  -1.07311  -1.07074  -1.06232
  Beta  occ. eigenvalues --   -1.06084  -1.05711  -1.05263  -1.04822  -1.04416
  Beta  occ. eigenvalues --   -1.04097  -1.03923  -0.96661  -0.96282  -0.95646
  Beta  occ. eigenvalues --   -0.94911  -0.94101  -0.93272  -0.92422  -0.92215
  Beta  occ. eigenvalues --   -0.91814  -0.91578  -0.91516  -0.91480  -0.91338
  Beta  occ. eigenvalues --   -0.90959  -0.90933  -0.90580  -0.90404  -0.90243
  Beta  occ. eigenvalues --   -0.90180  -0.89957  -0.89866  -0.89339  -0.88845
  Beta  occ. eigenvalues --   -0.88377  -0.87903  -0.87542  -0.87457  -0.86976
  Beta  occ. eigenvalues --   -0.85911  -0.85813  -0.85669  -0.85514  -0.85264
  Beta  occ. eigenvalues --   -0.85174  -0.84397  -0.84150  -0.83648  -0.83060
  Beta  occ. eigenvalues --   -0.82421  -0.81569  -0.80628  -0.79780  -0.77531
  Beta  occ. eigenvalues --   -0.76547  -0.75729  -0.75117  -0.74606  -0.73469
  Beta  occ. eigenvalues --   -0.73411  -0.73244  -0.72277  -0.71866  -0.71856
  Beta  occ. eigenvalues --   -0.71194  -0.70944  -0.70697  -0.70561  -0.70108
  Beta  occ. eigenvalues --   -0.69967  -0.69532  -0.69299  -0.69260  -0.69111
  Beta  occ. eigenvalues --   -0.69059  -0.68981  -0.68803  -0.67984  -0.67879
  Beta  occ. eigenvalues --   -0.67754  -0.67589  -0.67559  -0.67031  -0.66498
  Beta  occ. eigenvalues --   -0.66230  -0.65628  -0.65244  -0.64978  -0.63519
  Beta  occ. eigenvalues --   -0.63148  -0.62655  -0.62196  -0.62068  -0.61988
  Beta  occ. eigenvalues --   -0.61962  -0.61860  -0.61840  -0.61789  -0.61473
  Beta  occ. eigenvalues --   -0.61435  -0.61426  -0.61417  -0.61360  -0.61359
  Beta  occ. eigenvalues --   -0.61339  -0.61292  -0.61222  -0.61040  -0.60858
  Beta  occ. eigenvalues --   -0.60772  -0.60655  -0.60415  -0.60174  -0.59993
  Beta  occ. eigenvalues --   -0.59732  -0.59120  -0.58768  -0.58328  -0.58131
  Beta  occ. eigenvalues --   -0.58031  -0.57973  -0.57809  -0.57664  -0.57545
  Beta  occ. eigenvalues --   -0.57354  -0.57175  -0.56943  -0.56823  -0.56753
  Beta  occ. eigenvalues --   -0.56425  -0.56352  -0.55546  -0.55317  -0.55288
  Beta  occ. eigenvalues --   -0.55052  -0.54969  -0.54871  -0.54764  -0.54470
  Beta  occ. eigenvalues --   -0.54170  -0.54073  -0.53959  -0.53852  -0.53685
  Beta  occ. eigenvalues --   -0.53638  -0.53447  -0.53375  -0.52962  -0.52801
  Beta  occ. eigenvalues --   -0.52735  -0.52618  -0.52361  -0.52247  -0.52091
  Beta  occ. eigenvalues --   -0.51998  -0.51686  -0.51359  -0.51151  -0.50986
  Beta  occ. eigenvalues --   -0.50856  -0.50739  -0.50422  -0.49998  -0.49676
  Beta  occ. eigenvalues --   -0.49580  -0.49147  -0.48753  -0.48708  -0.48288
  Beta  occ. eigenvalues --   -0.48131  -0.48068  -0.47715  -0.47415  -0.47313
  Beta  occ. eigenvalues --   -0.47252  -0.47032  -0.47020  -0.46768  -0.46646
  Beta  occ. eigenvalues --   -0.46571  -0.46474  -0.46406  -0.46338  -0.46158
  Beta  occ. eigenvalues --   -0.46105  -0.45799  -0.45654  -0.45543  -0.45430
  Beta  occ. eigenvalues --   -0.45368  -0.45268  -0.45073  -0.44745  -0.44656
  Beta  occ. eigenvalues --   -0.44636  -0.44468  -0.44344  -0.44246  -0.44222
  Beta  occ. eigenvalues --   -0.44165  -0.44083  -0.43977  -0.43902  -0.43758
  Beta  occ. eigenvalues --   -0.43746  -0.43391  -0.43296  -0.43229  -0.40698
  Beta  occ. eigenvalues --   -0.40296  -0.39427  -0.38510  -0.37732  -0.37141
  Beta  occ. eigenvalues --   -0.35647  -0.35208  -0.34563  -0.34529  -0.34275
  Beta  occ. eigenvalues --   -0.34270  -0.34058  -0.33948  -0.33923  -0.33868
  Beta  occ. eigenvalues --   -0.33648  -0.33602  -0.33558  -0.33021  -0.32281
  Beta  occ. eigenvalues --   -0.30727  -0.29469  -0.28638  -0.27761  -0.26447
  Beta  occ. eigenvalues --   -0.25272  -0.24667
  Beta virt. eigenvalues --    0.00887   0.01499   0.02409   0.03524   0.04675
  Beta virt. eigenvalues --    0.05464   0.07755   0.07966   0.09645   0.10217
  Beta virt. eigenvalues --    0.10500   0.12028   0.12325   0.12774   0.13005

 Mulliken charges and spin densities:
               1          2
     1  C   -0.149626   0.000000
     2  C    0.000511  -0.000000
     3  C    0.138342  -0.000000
     4  O   -0.271983   0.000000
     5  C    0.039483   0.000000
     6  C   -0.172582  -0.000000
     7  S    0.181609  -0.000000
     8  C   -0.154449   0.000000
     9  C    0.158210  -0.000000
    10  O   -0.273183   0.000000
    11  C    0.040385  -0.000000
    12  C   -0.006228   0.000000
    13  C   -0.140380   0.000000
    14  S    0.202131   0.000000
    15  C   -0.137817  -0.000000
    16  C   -0.004679  -0.000000
    17  C    0.157166   0.000000
    18  O   -0.272616  -0.000000
    19  C    0.040519  -0.000000
    20  C   -0.164722  -0.000000
    21  S    0.202680   0.000000
    22  C   -0.162808   0.000000
    23  C    0.155521  -0.000000
    24  O   -0.272342   0.000000
    25  C    0.040562   0.000000
    26  C   -0.003195   0.000000
    27  C   -0.142706   0.000000
    28  S    0.205253  -0.000000
    29  C   -0.129307  -0.000000
    30  C   -0.025952  -0.000000
    31  C    0.194249  -0.000000
    32  O   -0.244381   0.000000
    33  C    0.034594   0.000000
    34  C   -0.205982   0.000000
    35  S    0.198391   0.000000
    36  C   -0.204992  -0.000000
    37  C    0.193224   0.000000
    38  O   -0.244014  -0.000000
    39  C    0.034445   0.000000
    40  C   -0.023668  -0.000000
    41  C   -0.134031  -0.000000
    42  S    0.201154  -0.000000
    43  C   -0.133502   0.000000
    44  C   -0.023069  -0.000000
    45  C    0.192289   0.000000
    46  O   -0.243606  -0.000000
    47  C    0.034480  -0.000000
    48  C   -0.203376  -0.000000
    49  S    0.198967   0.000000
    50  C   -0.201678  -0.000000
    51  C    0.191850   0.000000
    52  O   -0.244744   0.000000
    53  C    0.033450  -0.000000
    54  C   -0.026459   0.000000
    55  C   -0.127720  -0.000000
    56  S    0.184003  -0.000000
    57  C   -0.138553   0.000000
    58  C   -0.001940   0.000000
    59  C    0.154529  -0.000000
    60  O   -0.272864  -0.000000
    61  C    0.039020   0.000000
    62  C   -0.160547   0.000000
    63  S    0.187357   0.000000
    64  C   -0.162343  -0.000000
    65  C    0.154881   0.000000
    66  O   -0.273521  -0.000000
    67  C    0.041179   0.000000
    68  C   -0.004977   0.000000
    69  C   -0.139220  -0.000000
    70  S    0.204905  -0.000000
    71  C   -0.139788  -0.000000
    72  C   -0.004633   0.000000
    73  C    0.154190  -0.000000
    74  O   -0.273396   0.000000
    75  C    0.041175  -0.000000
    76  C   -0.161564   0.000000
    77  S    0.204203  -0.000000
    78  C   -0.161411   0.000000
    79  C    0.155425  -0.000000
    80  O   -0.272967   0.000000
    81  C    0.039701  -0.000000
    82  C   -0.004749   0.000000
    83  C   -0.134841  -0.000000
    84  S    0.185087  -0.000000
    85  C   -0.136832  -0.000000
    86  C   -0.006691   0.000000
    87  C    0.157122  -0.000000
    88  O   -0.273542  -0.000000
    89  C    0.039498  -0.000000
    90  C   -0.151655  -0.000000
    91  S    0.185539  -0.000000
    92  C   -0.170764   0.000000
    93  C    0.136758  -0.000000
    94  O   -0.272891  -0.000000
    95  C    0.039780   0.000000
    96  C    0.000530   0.000000
    97  C   -0.149744   0.000000
    98  S    0.182635  -0.000000
    99  H    0.043927   0.000000
   100  H    0.015217   0.000000
   101  H    0.067434   0.000000
   102  H    0.051152  -0.000000
   103  H    0.051498   0.000000
   104  H    0.053502  -0.000000
   105  H    0.066662   0.000000
   106  H    0.049750  -0.000000
   107  H    0.009659   0.000000
   108  H    0.009803   0.000000
   109  H    0.053210   0.000000
   110  H    0.069314  -0.000000
   111  H    0.050330   0.000000
   112  H    0.053867  -0.000000
   113  H    0.049421  -0.000000
   114  H    0.068386  -0.000000
   115  H    0.010549   0.000000
   116  H    0.012467  -0.000000
   117  H    0.047406   0.000000
   118  H    0.051205  -0.000000
   119  H    0.063222  -0.000000
   120  H    0.051342   0.000000
   121  H    0.047124  -0.000000
   122  H    0.063447  -0.000000
   123  H    0.013357   0.000000
   124  H    0.013367   0.000000
   125  H    0.047008   0.000000
   126  H    0.063504   0.000000
   127  H    0.051424   0.000000
   128  H    0.062823   0.000000
   129  H    0.051729   0.000000
   130  H    0.050533   0.000000
   131  H    0.022522  -0.000000
   132  H    0.021042  -0.000000
   133  H    0.054400  -0.000000
   134  H    0.054335  -0.000000
   135  H    0.068159  -0.000000
   136  H    0.066005  -0.000000
   137  H    0.050562  -0.000000
   138  H    0.053456   0.000000
   139  H    0.009384  -0.000000
   140  H    0.009406   0.000000
   141  H    0.065974   0.000000
   142  H    0.054236   0.000000
   143  H    0.049564   0.000000
   144  H    0.052875   0.000000
   145  H    0.068050  -0.000000
   146  H    0.053932   0.000000
   147  H    0.020064   0.000000
   148  H    0.019597   0.000000
   149  H    0.053553  -0.000000
   150  H    0.066216   0.000000
   151  H    0.052802   0.000000
   152  H    0.065490   0.000000
   153  H    0.052228  -0.000000
   154  H    0.051387  -0.000000
   155  H    0.015302   0.000000
   156  H    0.044064  -0.000000
 Sum of Mulliken charges =  -0.00000  -0.00000

 Dipole moment (field-independent basis, Debye):
    X=              0.6413    Y=             -2.3741    Z=              0.5678  Tot=              2.5239
 Quadrupole moment (field-independent basis, Debye-Ang):
   XX=           -576.0386   YY=           -546.6807   ZZ=           -565.5878
   XY=              7.0121   XZ=             35.9564   YZ=             49.6083

 Normal termination of Gaussian 16 at Sun Jul 26 05:47:02 2020.
