 Gaussian 16, Revision A.03,
 Gaussian 16:  EM64L-G16RevA.03 25-Dec-2016

 ---------------------------------------------------------------
 #P uLC-wPBE/cc-pVDZ iop(3/107=0210400000, 3/108=0210400000) opt
 ---------------------------------------------------------------

 ------------
 H6 C10 N2 F2
 ------------
 Symbolic Z-matrix:
 Charge =  0 Multiplicity = 1

 SCF Done:  E(ULC-wPBE) =  -693.262895956     A.U. after   16 cycles
 SCF Done:  E(ULC-wPBE) =  -693.296948892     A.U. after   14 cycles
 SCF Done:  E(ULC-wPBE) =  -693.303366852     A.U. after   14 cycles
 SCF Done:  E(ULC-wPBE) =  -693.303709864     A.U. after   14 cycles
 SCF Done:  E(ULC-wPBE) =  -693.304211519     A.U. after   13 cycles
 SCF Done:  E(ULC-wPBE) =  -693.304285260     A.U. after   12 cycles
 SCF Done:  E(ULC-wPBE) =  -693.305236275     A.U. after   16 cycles
 SCF Done:  E(ULC-wPBE) =  -693.303640749     A.U. after   17 cycles
 SCF Done:  E(ULC-wPBE) =  -693.305993314     A.U. after   13 cycles
 SCF Done:  E(ULC-wPBE) =  -693.306735670     A.U. after   14 cycles
 SCF Done:  E(ULC-wPBE) =  -693.307280092     A.U. after   13 cycles
 SCF Done:  E(ULC-wPBE) =  -693.307490315     A.U. after   12 cycles
 SCF Done:  E(ULC-wPBE) =  -693.307607434     A.U. after   12 cycles
 SCF Done:  E(ULC-wPBE) =  -693.307643755     A.U. after   11 cycles
 SCF Done:  E(ULC-wPBE) =  -693.307644654     A.U. after   10 cycles
 Optimization completed.
    -- Stationary point found.

                         Standard orientation:
 ---------------------------------------------------------------------
 Center     Atomic      Atomic             Coordinates (Angstroms)
 Number     Number       Type             X           Y           Z
 ---------------------------------------------------------------------
      1          6           0        3.479457   -0.374658   -0.233089
      2          6           0        2.962978    0.816995    0.277731
      3          6           0        1.579399    0.957402    0.324550
      4          9           0        1.053553    2.082355    0.842695
      5          6           0        0.743332   -0.073231   -0.136843
      6          7           0        1.251933   -1.221369   -0.615033
      7          6           0        2.582946   -1.359849   -0.659715
      8          6           0       -0.743212    0.072748   -0.136803
      9          7           0       -1.251305    1.221149   -0.614940
     10          6           0       -2.582279    1.360079   -0.659945
     11          6           0       -3.479198    0.375273   -0.233367
     12          6           0       -2.963237   -0.816404    0.277951
     13          6           0       -1.579759   -0.957479    0.324708
     14          9           0       -1.054400   -2.082957    0.842174
     15          1           0        4.562555   -0.538284   -0.294430
     16          1           0        3.601170    1.630320    0.643944
     17          1           0        2.952937   -2.315157   -1.061097
     18          1           0       -2.951849    2.315268   -1.061982
     19          1           0       -4.562245    0.539110   -0.295224
     20          1           0       -3.601915   -1.629559    0.643691
 ---------------------------------------------------------------------

 The electronic state is 1-A.
 Alpha  occ. eigenvalues --  -24.40842 -24.40841 -14.12300 -14.12300 -10.10976
 Alpha  occ. eigenvalues --  -10.10975 -10.06737 -10.06727 -10.05475 -10.05475
 Alpha  occ. eigenvalues --  -10.04532 -10.04532 -10.04039 -10.04038  -1.24741
 Alpha  occ. eigenvalues --   -1.24709  -1.00208  -0.98540  -0.86331  -0.86182
 Alpha  occ. eigenvalues --   -0.84137  -0.79946  -0.72315  -0.70545  -0.68589
 Alpha  occ. eigenvalues --   -0.67488  -0.61219  -0.60351  -0.58048  -0.57754
 Alpha  occ. eigenvalues --   -0.56612  -0.54513  -0.52864  -0.52266  -0.50984
 Alpha  occ. eigenvalues --   -0.48851  -0.47728  -0.46828  -0.46663  -0.46090
 Alpha  occ. eigenvalues --   -0.45666  -0.43620  -0.42715  -0.37345  -0.35842
 Alpha  occ. eigenvalues --   -0.33734  -0.32998  -0.31531  -0.31028
 Alpha virt. eigenvalues --    0.00195   0.03138   0.03726   0.06093   0.12380
 Alpha virt. eigenvalues --    0.13063   0.17029   0.17474   0.18665   0.19334
 Alpha virt. eigenvalues --    0.19645   0.19660   0.21194   0.21284   0.28846

  Beta  occ. eigenvalues --  -24.40842 -24.40841 -14.12300 -14.12300 -10.10976
  Beta  occ. eigenvalues --  -10.10975 -10.06737 -10.06727 -10.05475 -10.05475
  Beta  occ. eigenvalues --  -10.04532 -10.04532 -10.04039 -10.04038  -1.24741
  Beta  occ. eigenvalues --   -1.24709  -1.00208  -0.98540  -0.86331  -0.86182
  Beta  occ. eigenvalues --   -0.84137  -0.79946  -0.72315  -0.70545  -0.68589
  Beta  occ. eigenvalues --   -0.67488  -0.61219  -0.60351  -0.58048  -0.57754
  Beta  occ. eigenvalues --   -0.56612  -0.54513  -0.52864  -0.52266  -0.50984
  Beta  occ. eigenvalues --   -0.48851  -0.47728  -0.46828  -0.46663  -0.46090
  Beta  occ. eigenvalues --   -0.45666  -0.43620  -0.42715  -0.37345  -0.35842
  Beta  occ. eigenvalues --   -0.33734  -0.32998  -0.31531  -0.31028
  Beta virt. eigenvalues --    0.00195   0.03138   0.03726   0.06093   0.12380
  Beta virt. eigenvalues --    0.13063   0.17029   0.17474   0.18665   0.19334
  Beta virt. eigenvalues --    0.19645   0.19660   0.21194   0.21284   0.28846

 Mulliken charges and spin densities:
               1          2
     1  C   -0.017191  -0.000000
     2  C    0.054281   0.000000
     3  C    0.127205  -0.000000
     4  F   -0.108935   0.000000
     5  C    0.023484   0.000000
     6  N   -0.172202  -0.000000
     7  C    0.079373   0.000000
     8  C    0.023449   0.000000
     9  N   -0.172223   0.000000
    10  C    0.079410  -0.000000
    11  C   -0.017213  -0.000000
    12  C    0.054275   0.000000
    13  C    0.127183  -0.000000
    14  F   -0.108917   0.000000
    15  H   -0.001426  -0.000000
    16  H    0.008509  -0.000000
    17  H    0.006921   0.000000
    18  H    0.006923   0.000000
    19  H   -0.001421  -0.000000
    20  H    0.008515   0.000000
 Sum of Mulliken charges =  -0.00000   0.00000

 Dipole moment (field-independent basis, Debye):
    X=             -0.0006    Y=              0.0008    Z=              0.4132  Tot=              0.4132
 Quadrupole moment (field-independent basis, Debye-Ang):
   XX=            -54.4122   YY=            -79.3679   ZZ=            -79.4512
   XY=             -0.0693   XZ=              0.0036   YZ=             -0.0018

 Normal termination of Gaussian 16 at Sun Jul 26 12:39:20 2020.
