 Gaussian 16, Revision A.03,
 Gaussian 16:  EM64L-G16RevA.03 25-Dec-2016

 ---------------------------------------------------------------
 #P uLC-wPBE/cc-pVDZ iop(3/107=0391900000, 3/108=0391900000) opt
 ---------------------------------------------------------------

 ----------------
 H20 C27 S3 N6 O3
 ----------------
 Symbolic Z-matrix:
 Charge =  0 Multiplicity = 1

 SCF Done:  E(ULC-wPBE) =  -2788.12388893     A.U. after   16 cycles
 SCF Done:  E(ULC-wPBE) =  -2788.17730589     A.U. after   14 cycles
 SCF Done:  E(ULC-wPBE) =  -2788.21132226     A.U. after   16 cycles
 SCF Done:  E(ULC-wPBE) =  -2788.21559002     A.U. after   15 cycles
 SCF Done:  E(ULC-wPBE) =  -2788.21885609     A.U. after   16 cycles
 SCF Done:  E(ULC-wPBE) =  -2788.21950239     A.U. after   15 cycles
 SCF Done:  E(ULC-wPBE) =  -2788.21974909     A.U. after   12 cycles
 SCF Done:  E(ULC-wPBE) =  -2788.21979711     A.U. after   12 cycles
 SCF Done:  E(ULC-wPBE) =  -2788.21981113     A.U. after   11 cycles
 SCF Done:  E(ULC-wPBE) =  -2788.21981927     A.U. after   11 cycles
 SCF Done:  E(ULC-wPBE) =  -2788.21982286     A.U. after   10 cycles
 SCF Done:  E(ULC-wPBE) =  -2788.21982417     A.U. after   10 cycles
 SCF Done:  E(ULC-wPBE) =  -2788.21982460     A.U. after    9 cycles
 SCF Done:  E(ULC-wPBE) =  -2788.21982477     A.U. after    7 cycles
 SCF Done:  E(ULC-wPBE) =  -2788.21982481     A.U. after    6 cycles
 SCF Done:  E(ULC-wPBE) =  -2788.21982484     A.U. after    6 cycles
 SCF Done:  E(ULC-wPBE) =  -2788.21982487     A.U. after    6 cycles
 Optimization completed.
    -- Stationary point found.

                         Standard orientation:
 ---------------------------------------------------------------------
 Center     Atomic      Atomic             Coordinates (Angstroms)
 Number     Number       Type             X           Y           Z
 ---------------------------------------------------------------------
      1          6           0      -10.228410   -3.339702    0.939323
      2          6           0       -8.899835   -3.557228    1.275227
      3          7           0       -7.938815   -2.697554    0.970299
      4          6           0       -8.308459   -1.588952    0.313380
      5          7           0       -9.552659   -1.279544   -0.057320
      6          6           0      -10.494128   -2.160025    0.261010
      7          6           0       -7.223305   -0.662631   -0.005008
      8          6           0       -7.239359    0.550072   -0.664130
      9          8           0       -8.372648    1.080250   -1.151118
     10          6           0       -8.272354    2.322390   -1.809292
     11          6           0       -5.942378    1.135094   -0.763424
     12          6           0       -4.973124    0.363198   -0.181091
     13         16           0       -5.621808   -1.071778    0.498218
     14          6           0       -3.538912    0.662435   -0.102633
     15          6           0       -3.056390    1.965327    0.013106
     16          7           0       -1.768560    2.267747    0.066362
     17          6           0       -0.914968    1.242193    0.017234
     18          7           0       -1.260091   -0.049588   -0.078922
     19          6           0       -2.551668   -0.322910   -0.141177
     20          6           0        0.519084    1.506142    0.073679
     21          6           0        1.210910    2.697432    0.170354
     22          8           0        0.581917    3.882054    0.221328
     23          6           0        1.386091    5.035208    0.324064
     24          6           0        2.623807    2.507919    0.196514
     25          6           0        2.977235    1.187088    0.121166
     26         16           0        1.605225    0.162653    0.027057
     27          6           0        4.337995    0.638661    0.122004
     28          6           0        4.698598   -0.509251   -0.582447
     29          7           0        5.925955   -1.005929   -0.592206
     30          6           0        6.843793   -0.341732    0.113928
     31          7           0        6.615063    0.769258    0.829802
     32          6           0        5.379528    1.237085    0.831573
     33          6           0        8.218014   -0.833227    0.135967
     34          6           0        8.786363   -1.930350   -0.481341
     35          8           0        8.070331   -2.761680   -1.255311
     36          6           0        8.752293   -3.851458   -1.832427
     37          6           0       10.181369   -2.054539   -0.196448
     38          6           0       10.622523   -1.057095    0.620306
     39         16           0        9.393951    0.035922    1.059124
     40          1           0      -11.013375   -4.051430    1.192962
     41          1           0       -8.590394   -4.460025    1.812220
     42          1           0      -11.514298   -1.903971   -0.044661
     43          1           0       -7.888960    3.108477   -1.138464
     44          1           0       -9.289639    2.584826   -2.120643
     45          1           0       -7.629587    2.259061   -2.702439
     46          1           0       -5.725755    2.072303   -1.271744
     47          1           0       -3.753501    2.807684    0.079646
     48          1           0       -2.823184   -1.380087   -0.236564
     49          1           0        1.995334    5.025269    1.242455
     50          1           0        2.046095    5.150063   -0.551121
     51          1           0        0.695664    5.885132    0.363634
     52          1           0        3.353487    3.313876    0.236694
     53          1           0        3.953633   -1.048953   -1.178237
     54          1           0        5.197215    2.129618    1.439629
     55          1           0        9.558556   -3.516731   -2.505378
     56          1           0        9.172514   -4.521182   -1.064456
     57          1           0        8.006531   -4.402536   -2.416334
     58          1           0       10.825377   -2.843878   -0.577693
     59          1           0       11.637491   -0.918846    0.988311
 ---------------------------------------------------------------------

 The electronic state is 1-A.
 Alpha  occ. eigenvalues --  -88.31617 -88.31578 -88.31162 -19.01221 -19.01104
 Alpha  occ. eigenvalues --  -19.00830 -14.21838 -14.21692 -14.21556 -14.21473
 Alpha  occ. eigenvalues --  -14.21222 -14.21132 -10.19855 -10.19675 -10.19666
 Alpha  occ. eigenvalues --  -10.18856 -10.18744 -10.18399 -10.17311 -10.17244
 Alpha  occ. eigenvalues --  -10.17235 -10.17197 -10.17164 -10.16992 -10.16987
 Alpha  occ. eigenvalues --  -10.16948 -10.16836 -10.16498 -10.16434 -10.15005
 Alpha  occ. eigenvalues --  -10.14506 -10.14377 -10.13820 -10.13727 -10.13380
 Alpha  occ. eigenvalues --  -10.12885 -10.12641 -10.12616 -10.12234  -7.92302
 Alpha  occ. eigenvalues --   -7.92262  -7.91859  -5.93866  -5.93826  -5.93413
 Alpha  occ. eigenvalues --   -5.93333  -5.93292  -5.92909  -5.92880  -5.92870
 Alpha  occ. eigenvalues --   -5.92485  -1.21173  -1.21062  -1.20774  -1.13947
 Alpha  occ. eigenvalues --   -1.13755  -1.13556  -1.04764  -1.04352  -1.03529
 Alpha  occ. eigenvalues --   -1.03145  -1.02921  -1.02818  -0.97460  -0.96046
 Alpha  occ. eigenvalues --   -0.94267  -0.90824  -0.89660  -0.89299  -0.88973
 Alpha  occ. eigenvalues --   -0.88109  -0.87163  -0.84118  -0.83507  -0.82304
 Alpha  occ. eigenvalues --   -0.80583  -0.79960  -0.79638  -0.79296  -0.78016
 Alpha  occ. eigenvalues --   -0.76422  -0.71274  -0.70721  -0.70467  -0.69781
 Alpha  occ. eigenvalues --   -0.69109  -0.68857  -0.67964  -0.67470  -0.67137
 Alpha  occ. eigenvalues --   -0.64906  -0.64550  -0.63849  -0.62270  -0.61306
 Alpha  occ. eigenvalues --   -0.60815  -0.60575  -0.60486  -0.60292  -0.59410
 Alpha  occ. eigenvalues --   -0.58741  -0.57784  -0.57716  -0.57495  -0.57148
 Alpha  occ. eigenvalues --   -0.56656  -0.55986  -0.55721  -0.55537  -0.54325
 Alpha  occ. eigenvalues --   -0.53911  -0.53815  -0.53017  -0.52456  -0.52170
 Alpha  occ. eigenvalues --   -0.52013  -0.51894  -0.51511  -0.50977  -0.50880
 Alpha  occ. eigenvalues --   -0.50087  -0.46608  -0.46440  -0.46350  -0.45973
 Alpha  occ. eigenvalues --   -0.45602  -0.45544  -0.45384  -0.45033  -0.44574
 Alpha  occ. eigenvalues --   -0.43189  -0.42902  -0.42894  -0.42462  -0.41681
 Alpha  occ. eigenvalues --   -0.41327  -0.41251  -0.41216  -0.39239  -0.36117
 Alpha  occ. eigenvalues --   -0.35895  -0.35706  -0.34975  -0.34242  -0.33966
 Alpha  occ. eigenvalues --   -0.31876  -0.30329  -0.28467
 Alpha virt. eigenvalues --   -0.00613   0.01814   0.04391   0.04661   0.04759
 Alpha virt. eigenvalues --    0.04994   0.08244   0.10700   0.12665   0.13521
 Alpha virt. eigenvalues --    0.13883   0.14186   0.15178   0.15215   0.15834

  Beta  occ. eigenvalues --  -88.31617 -88.31578 -88.31162 -19.01221 -19.01104
  Beta  occ. eigenvalues --  -19.00830 -14.21838 -14.21692 -14.21556 -14.21473
  Beta  occ. eigenvalues --  -14.21222 -14.21132 -10.19855 -10.19675 -10.19666
  Beta  occ. eigenvalues --  -10.18856 -10.18744 -10.18399 -10.17311 -10.17244
  Beta  occ. eigenvalues --  -10.17235 -10.17197 -10.17164 -10.16992 -10.16987
  Beta  occ. eigenvalues --  -10.16948 -10.16836 -10.16498 -10.16434 -10.15005
  Beta  occ. eigenvalues --  -10.14506 -10.14377 -10.13820 -10.13727 -10.13380
  Beta  occ. eigenvalues --  -10.12885 -10.12641 -10.12616 -10.12234  -7.92302
  Beta  occ. eigenvalues --   -7.92262  -7.91859  -5.93866  -5.93826  -5.93413
  Beta  occ. eigenvalues --   -5.93333  -5.93292  -5.92909  -5.92880  -5.92870
  Beta  occ. eigenvalues --   -5.92485  -1.21173  -1.21062  -1.20774  -1.13947
  Beta  occ. eigenvalues --   -1.13755  -1.13556  -1.04764  -1.04352  -1.03529
  Beta  occ. eigenvalues --   -1.03145  -1.02921  -1.02818  -0.97460  -0.96046
  Beta  occ. eigenvalues --   -0.94267  -0.90824  -0.89660  -0.89299  -0.88973
  Beta  occ. eigenvalues --   -0.88109  -0.87163  -0.84118  -0.83507  -0.82304
  Beta  occ. eigenvalues --   -0.80583  -0.79960  -0.79638  -0.79296  -0.78016
  Beta  occ. eigenvalues --   -0.76422  -0.71274  -0.70721  -0.70467  -0.69781
  Beta  occ. eigenvalues --   -0.69109  -0.68857  -0.67964  -0.67470  -0.67137
  Beta  occ. eigenvalues --   -0.64906  -0.64550  -0.63849  -0.62270  -0.61306
  Beta  occ. eigenvalues --   -0.60815  -0.60575  -0.60486  -0.60292  -0.59410
  Beta  occ. eigenvalues --   -0.58741  -0.57784  -0.57716  -0.57495  -0.57148
  Beta  occ. eigenvalues --   -0.56656  -0.55986  -0.55721  -0.55537  -0.54325
  Beta  occ. eigenvalues --   -0.53911  -0.53815  -0.53017  -0.52456  -0.52170
  Beta  occ. eigenvalues --   -0.52013  -0.51894  -0.51511  -0.50977  -0.50880
  Beta  occ. eigenvalues --   -0.50087  -0.46608  -0.46440  -0.46350  -0.45973
  Beta  occ. eigenvalues --   -0.45602  -0.45544  -0.45384  -0.45033  -0.44574
  Beta  occ. eigenvalues --   -0.43189  -0.42902  -0.42894  -0.42462  -0.41681
  Beta  occ. eigenvalues --   -0.41327  -0.41251  -0.41216  -0.39239  -0.36117
  Beta  occ. eigenvalues --   -0.35895  -0.35706  -0.34975  -0.34242  -0.33966
  Beta  occ. eigenvalues --   -0.31876  -0.30329  -0.28467
  Beta virt. eigenvalues --   -0.00613   0.01814   0.04391   0.04661   0.04759
  Beta virt. eigenvalues --    0.04994   0.08244   0.10700   0.12665   0.13521
  Beta virt. eigenvalues --    0.13883   0.14186   0.15178   0.15215   0.15834

 Mulliken charges and spin densities:
               1          2
     1  C   -0.105269  -0.000000
     2  C    0.118202   0.000000
     3  N   -0.223865  -0.000000
     4  C    0.216015  -0.000000
     5  N   -0.188775  -0.000000
     6  C    0.110092   0.000000
     7  C   -0.233880   0.000000
     8  C    0.166290  -0.000000
     9  O   -0.217740  -0.000000
    10  C    0.039771  -0.000000
    11  C   -0.019868   0.000000
    12  C   -0.163137  -0.000000
    13  S    0.214991   0.000000
    14  C   -0.103560  -0.000000
    15  C    0.126969   0.000000
    16  N   -0.183080  -0.000000
    17  C    0.218396  -0.000000
    18  N   -0.217958  -0.000000
    19  C    0.140358   0.000000
    20  C   -0.235718   0.000000
    21  C    0.166184  -0.000000
    22  O   -0.218155   0.000000
    23  C    0.039622   0.000000
    24  C   -0.019541   0.000000
    25  C   -0.161840  -0.000000
    26  S    0.217663  -0.000000
    27  C   -0.104353   0.000000
    28  C    0.128824  -0.000000
    29  N   -0.182399   0.000000
    30  C    0.224501  -0.000000
    31  N   -0.217356  -0.000000
    32  C    0.135580  -0.000000
    33  C   -0.242590  -0.000000
    34  C    0.150698   0.000000
    35  O   -0.217488   0.000000
    36  C    0.038391   0.000000
    37  C   -0.007611  -0.000000
    38  C   -0.131514   0.000000
    39  S    0.206885  -0.000000
    40  H    0.016637  -0.000000
    41  H    0.028679   0.000000
    42  H    0.024859   0.000000
    43  H    0.048421   0.000000
    44  H    0.064860   0.000000
    45  H    0.050425   0.000000
    46  H    0.009294  -0.000000
    47  H    0.018955   0.000000
    48  H    0.032090  -0.000000
    49  H    0.049443  -0.000000
    50  H    0.050822   0.000000
    51  H    0.064880  -0.000000
    52  H    0.009612  -0.000000
    53  H    0.029106   0.000000
    54  H    0.021635   0.000000
    55  H    0.048657   0.000000
    56  H    0.049104  -0.000000
    57  H    0.064896   0.000000
    58  H    0.012646  -0.000000
    59  H    0.041242   0.000000
 Sum of Mulliken charges =  -0.00000   0.00000

 Dipole moment (field-independent basis, Debye):
    X=             -0.5149    Y=              0.9989    Z=             -1.4345  Tot=              1.8223
 Quadrupole moment (field-independent basis, Debye-Ang):
   XX=           -175.6286   YY=           -202.7971   ZZ=           -240.0967
   XY=             -9.4952   XZ=             -3.5957   YZ=             -0.6924

 Normal termination of Gaussian 16 at Sat Jul 25 18:00:05 2020.
