 Gaussian 16, Revision A.03,
 Gaussian 16:  EM64L-G16RevA.03 25-Dec-2016

 ---------------------------------------------------------------
 #P uLC-wPBE/cc-pVDZ iop(3/107=0083000000, 3/108=0083000000) opt
 ---------------------------------------------------------------

 -------------
 H11 C12 N1 O1
 -------------
 Symbolic Z-matrix:
 Charge =  0 Multiplicity = 1

 SCF Done:  E(ULC-wPBE) =  -593.231183492     A.U. after   15 cycles
 SCF Done:  E(ULC-wPBE) =  -593.258476677     A.U. after   13 cycles
 SCF Done:  E(ULC-wPBE) =  -593.264077277     A.U. after   13 cycles
 SCF Done:  E(ULC-wPBE) =  -593.264566262     A.U. after   13 cycles
 SCF Done:  E(ULC-wPBE) =  -593.264777265     A.U. after   13 cycles
 SCF Done:  E(ULC-wPBE) =  -593.264820739     A.U. after   12 cycles
 SCF Done:  E(ULC-wPBE) =  -593.264836418     A.U. after   11 cycles
 SCF Done:  E(ULC-wPBE) =  -593.264842802     A.U. after    9 cycles
 SCF Done:  E(ULC-wPBE) =  -593.264844522     A.U. after    9 cycles
 SCF Done:  E(ULC-wPBE) =  -593.264846396     A.U. after   10 cycles
 SCF Done:  E(ULC-wPBE) =  -593.264848454     A.U. after   10 cycles
 SCF Done:  E(ULC-wPBE) =  -593.264850105     A.U. after   10 cycles
 SCF Done:  E(ULC-wPBE) =  -593.264850741     A.U. after   10 cycles
 SCF Done:  E(ULC-wPBE) =  -593.264851134     A.U. after   10 cycles
 SCF Done:  E(ULC-wPBE) =  -593.264851249     A.U. after    8 cycles
 SCF Done:  E(ULC-wPBE) =  -593.264851216     A.U. after    7 cycles
 SCF Done:  E(ULC-wPBE) =  -593.264851258     A.U. after    7 cycles
 Optimization completed.
    -- Stationary point found.

                         Standard orientation:
 ---------------------------------------------------------------------
 Center     Atomic      Atomic             Coordinates (Angstroms)
 Number     Number       Type             X           Y           Z
 ---------------------------------------------------------------------
      1          6           0        3.720972   -0.187848   -0.012745
      2          6           0        3.013076    0.868025   -0.601019
      3          6           0        1.614700    0.818264   -0.635068
      4          6           0        0.952177   -0.297846   -0.073161
      5          7           0        1.639353   -1.328017    0.482355
      6          6           0        2.979038   -1.259905    0.505645
      7          6           0       -0.532821   -0.460927   -0.091995
      8          6           0       -1.062404   -1.769301    0.000895
      9          6           0       -2.438265   -2.013902   -0.028788
     10          6           0       -3.337127   -0.942188   -0.150620
     11          6           0       -2.841451    0.364542   -0.228582
     12          6           0       -1.458155    0.608643   -0.200549
     13          8           0       -1.034423    1.929914   -0.302754
     14          6           0       -0.968508    2.601173    0.962605
     15          1           0        4.818869   -0.188857    0.039113
     16          1           0        3.544407    1.726427   -1.038085
     17          1           0        1.028477    1.623510   -1.092662
     18          1           0        3.493157   -2.119290    0.969402
     19          1           0       -0.341215   -2.591130    0.104226
     20          1           0       -2.811361   -3.046007    0.036117
     21          1           0       -4.421420   -1.122086   -0.185706
     22          1           0       -3.515165    1.227954   -0.324973
     23          1           0       -0.665615    3.644051    0.751574
     24          1           0       -0.219234    2.128508    1.636124
     25          1           0       -1.958376    2.601352    1.470707
 ---------------------------------------------------------------------

 The electronic state is 1-A.
 Alpha  occ. eigenvalues --  -18.83405 -14.04034 -10.00068  -9.99662  -9.98844
 Alpha  occ. eigenvalues --   -9.97879  -9.96474  -9.95738  -9.95656  -9.95252
 Alpha  occ. eigenvalues --   -9.95234  -9.94881  -9.94691  -9.94547  -1.01115
 Alpha  occ. eigenvalues --   -0.90434  -0.82084  -0.77251  -0.75538  -0.72310
 Alpha  occ. eigenvalues --   -0.70785  -0.66687  -0.62071  -0.61516  -0.57989
 Alpha  occ. eigenvalues --   -0.57052  -0.52323  -0.50005  -0.48238  -0.47687
 Alpha  occ. eigenvalues --   -0.45829  -0.45611  -0.44737  -0.42716  -0.42521
 Alpha  occ. eigenvalues --   -0.41328  -0.40579  -0.39790  -0.37590  -0.37055
 Alpha  occ. eigenvalues --   -0.36131  -0.35112  -0.33902  -0.30795  -0.29539
 Alpha  occ. eigenvalues --   -0.27208  -0.26265  -0.25422  -0.24906
 Alpha virt. eigenvalues --   -0.02975  -0.00876   0.01063   0.03528   0.08588
 Alpha virt. eigenvalues --    0.08862   0.09950   0.12096   0.12703   0.12964
 Alpha virt. eigenvalues --    0.13399   0.14673   0.14822   0.15340   0.16651

  Beta  occ. eigenvalues --  -18.83405 -14.04034 -10.00068  -9.99662  -9.98844
  Beta  occ. eigenvalues --   -9.97879  -9.96474  -9.95738  -9.95656  -9.95252
  Beta  occ. eigenvalues --   -9.95234  -9.94881  -9.94691  -9.94547  -1.01115
  Beta  occ. eigenvalues --   -0.90434  -0.82084  -0.77251  -0.75538  -0.72310
  Beta  occ. eigenvalues --   -0.70785  -0.66687  -0.62071  -0.61516  -0.57989
  Beta  occ. eigenvalues --   -0.57052  -0.52323  -0.50005  -0.48238  -0.47687
  Beta  occ. eigenvalues --   -0.45829  -0.45611  -0.44737  -0.42716  -0.42521
  Beta  occ. eigenvalues --   -0.41328  -0.40579  -0.39790  -0.37590  -0.37055
  Beta  occ. eigenvalues --   -0.36131  -0.35112  -0.33902  -0.30795  -0.29539
  Beta  occ. eigenvalues --   -0.27208  -0.26265  -0.25422  -0.24906
  Beta virt. eigenvalues --   -0.02975  -0.00876   0.01063   0.03528   0.08588
  Beta virt. eigenvalues --    0.08862   0.09950   0.12096   0.12703   0.12964
  Beta virt. eigenvalues --    0.13399   0.14673   0.14822   0.15340   0.16651

 Mulliken charges and spin densities:
               1          2
     1  C   -0.024140  -0.000000
     2  C    0.074546   0.000000
     3  C    0.009742  -0.000000
     4  C    0.048829   0.000000
     5  N   -0.194671  -0.000000
     6  C    0.088658   0.000000
     7  C    0.052006   0.000000
     8  C    0.041406   0.000000
     9  C    0.041012  -0.000000
    10  C    0.038908   0.000000
    11  C    0.066261  -0.000000
    12  C   -0.022940  -0.000000
    13  O   -0.265884  -0.000000
    14  C    0.073459   0.000000
    15  H   -0.017423   0.000000
    16  H   -0.013277  -0.000000
    17  H   -0.010989  -0.000000
    18  H   -0.004169   0.000000
    19  H   -0.029340  -0.000000
    20  H   -0.021778  -0.000000
    21  H   -0.021107  -0.000000
    22  H   -0.025833   0.000000
    23  H    0.045105  -0.000000
    24  H    0.037700  -0.000000
    25  H    0.033919   0.000000
 Sum of Mulliken charges =  -0.00000  -0.00000

 Dipole moment (field-independent basis, Debye):
    X=              0.4274    Y=              1.4297    Z=              0.4981  Tot=              1.5731
 Quadrupole moment (field-independent basis, Debye-Ang):
   XX=            -68.6822   YY=            -75.9739   ZZ=            -84.1647
   XY=              1.4409   XZ=             -1.4685   YZ=              1.6898

 Normal termination of Gaussian 16 at Fri Jul 24 12:51:23 2020.
