 Gaussian 16, Revision A.03,
 Gaussian 16:  EM64L-G16RevA.03 25-Dec-2016

 ---------------------------------------------------------------
 #P uLC-wPBE/cc-pVDZ iop(3/107=0098400000, 3/108=0098400000) opt
 ---------------------------------------------------------------

 -------------------
 H32 C50 S5 N5 O5 F5
 -------------------
 Symbolic Z-matrix:
 Charge =  0 Multiplicity = 1

 SCF Done:  E(ULC-wPBE) =  -5060.83909640     A.U. after   18 cycles
 SCF Done:  E(ULC-wPBE) =  -5060.92863226     A.U. after   14 cycles
 SCF Done:  E(ULC-wPBE) =  -5061.00843874     A.U. after   15 cycles
 SCF Done:  E(ULC-wPBE) =  -5061.03043760     A.U. after   16 cycles
 SCF Done:  E(ULC-wPBE) =  -5061.04104047     A.U. after   15 cycles
 SCF Done:  E(ULC-wPBE) =  -5061.04919581     A.U. after   15 cycles
 SCF Done:  E(ULC-wPBE) =  -5061.05622349     A.U. after   17 cycles
 SCF Done:  E(ULC-wPBE) =  -5061.05944907     A.U. after   13 cycles
 SCF Done:  E(ULC-wPBE) =  -5061.06064970     A.U. after   14 cycles
 SCF Done:  E(ULC-wPBE) =  -5061.06168692     A.U. after   14 cycles
 SCF Done:  E(ULC-wPBE) =  -5061.06223099     A.U. after   11 cycles
 SCF Done:  E(ULC-wPBE) =  -5061.06224446     A.U. after   11 cycles
 SCF Done:  E(ULC-wPBE) =  -5061.06224999     A.U. after   12 cycles
 SCF Done:  E(ULC-wPBE) =  -5061.06225176     A.U. after   10 cycles
 SCF Done:  E(ULC-wPBE) =  -5061.06225259     A.U. after   10 cycles
 SCF Done:  E(ULC-wPBE) =  -5061.06225316     A.U. after   10 cycles
 SCF Done:  E(ULC-wPBE) =  -5061.06225325     A.U. after   10 cycles
 SCF Done:  E(ULC-wPBE) =  -5061.06225336     A.U. after    7 cycles
 SCF Done:  E(ULC-wPBE) =  -5061.06225336     A.U. after    6 cycles
 SCF Done:  E(ULC-wPBE) =  -5061.06225346     A.U. after    6 cycles
 Optimization completed.
    -- Stationary point found.

                         Standard orientation:
 ---------------------------------------------------------------------
 Center     Atomic      Atomic             Coordinates (Angstroms)
 Number     Number       Type             X           Y           Z
 ---------------------------------------------------------------------
      1          6           0       19.078629   -1.335666   -0.876000
      2          6           0       18.860728   -0.140823   -0.181033
      3          7           0       17.641298    0.351470    0.082606
      4          6           0       16.551296   -0.326578   -0.337462
      5          6           0       16.681467   -1.556846   -1.055347
      6          8           0       15.521394   -2.168138   -1.438572
      7          6           0       15.610142   -3.391128   -2.167394
      8          6           0       17.963133   -2.057925   -1.321934
      9          6           0       15.253499    0.278425   -0.012994
     10          6           0       15.022459    1.489748    0.646842
     11          9           0       15.992799    2.301268    1.096812
     12          6           0       13.662799    1.836417    0.835213
     13          6           0       12.798299    0.882585    0.319165
     14         16           0       13.691857   -0.434668   -0.414161
     15          6           0       11.334872    0.889595    0.320501
     16          6           0       10.607691    2.096931    0.422736
     17          7           0        9.274743    2.171864    0.444216
     18          6           0        8.538585    1.042052    0.350342
     19          6           0        9.179380   -0.230093    0.223228
     20          8           0        8.361439   -1.319295    0.128560
     21          6           0        8.961023   -2.607273   -0.004550
     22          6           0       10.575629   -0.296411    0.217216
     23          6           0        7.084055    1.211706    0.385783
     24          6           0        6.369962    2.410870    0.487187
     25          9           0        6.941075    3.622549    0.577487
     26          6           0        4.960429    2.285730    0.499322
     27          6           0        4.546526    0.964720    0.409839
     28         16           0        5.923816   -0.112590    0.294440
     29          6           0        3.180354    0.439550    0.391887
     30          6           0        2.092266    1.247156   -0.007072
     31          7           0        0.828831    0.816016   -0.063633
     32          6           0        0.536595   -0.462234    0.269135
     33          6           0        1.556143   -1.344086    0.742168
     34          8           0        1.158055   -2.570338    1.170395
     35          6           0        2.156595   -3.474489    1.636313
     36          6           0        2.878498   -0.883874    0.781372
     37          6           0       -0.881054   -0.814430    0.170083
     38          6           0       -1.594758   -2.002945    0.028059
     39          9           0       -1.034114   -3.223635   -0.090354
     40          6           0       -3.002560   -1.858829   -0.056835
     41          6           0       -3.401864   -0.531002    0.002444
     42         16           0       -2.015389    0.530316    0.160147
     43          6           0       -4.760600    0.010547   -0.059794
     44          6           0       -5.880916   -0.783854    0.268952
     45          7           0       -7.139982   -0.336426    0.250471
     46          6           0       -7.394514    0.947035   -0.093475
     47          6           0       -6.336039    1.818018   -0.497602
     48          8           0       -6.690145    3.051674   -0.940319
     49          6           0       -5.651542    3.948106   -1.330347
     50          6           0       -5.020160    1.339913   -0.458779
     51          6           0       -8.810681    1.317679   -0.081527
     52          6           0       -9.516719    2.514964    0.019830
     53          9           0       -8.949424    3.727575    0.178615
     54          6           0      -10.929041    2.389243    0.015176
     55          6           0      -11.341300    1.067284   -0.074575
     56         16           0       -9.961344   -0.012170   -0.148282
     57          6           0      -12.708666    0.545883   -0.102468
     58          6           0      -13.793121    1.350796   -0.515477
     59          7           0      -15.063612    0.939444   -0.551307
     60          6           0      -15.368153   -0.326312   -0.189374
     61          6           0      -14.337667   -1.228072    0.224179
     62          8           0      -14.731067   -2.489482    0.565330
     63          6           0      -13.733350   -3.421642    0.981646
     64          6           0      -13.014388   -0.780796    0.271756
     65          6           0      -16.785549   -0.696534   -0.249013
     66          6           0      -17.859639    0.116304   -0.623495
     67          9           0      -17.742125    1.402961   -0.992672
     68          6           0      -19.136674   -0.506142   -0.593516
     69          6           0      -19.047180   -1.819727   -0.189581
     70         16           0      -17.417371   -2.294896    0.152510
     71          1           0       20.096989   -1.700823   -1.068863
     72          1           0       19.709431    0.458584    0.187251
     73          1           0       14.568282   -3.693676   -2.373478
     74          1           0       16.150429   -3.253303   -3.128874
     75          1           0       16.114227   -4.183926   -1.573249
     76          1           0       18.094831   -2.998930   -1.870937
     77          1           0       13.353411    2.745737    1.362769
     78          1           0       11.141879    3.059532    0.472956
     79          1           0        8.122371   -3.321831   -0.077513
     80          1           0        9.582701   -2.672344   -0.923474
     81          1           0        9.585202   -2.858848    0.880013
     82          1           0       11.087749   -1.265573    0.154876
     83          1           0        4.293048    3.148679    0.603185
     84          1           0        2.258662    2.290680   -0.317705
     85          1           0        1.616575   -4.399018    1.905910
     86          1           0        2.682710   -3.079034    2.532674
     87          1           0        2.903868   -3.702227    0.845144
     88          1           0        3.680950   -1.533507    1.154726
     89          1           0       -3.675064   -2.711630   -0.204590
     90          1           0       -5.747471   -1.830559    0.585066
     91          1           0       -5.073983    3.555278   -2.195487
     92          1           0       -4.954423    4.156799   -0.490031
     93          1           0       -6.161729    4.882345   -1.623229
     94          1           0       -4.187807    1.981448   -0.776805
     95          1           0      -11.599167    3.249737    0.123772
     96          1           0      -13.615489    2.384627   -0.853725
     97          1           0      -13.215598   -3.078095    1.903093
     98          1           0      -12.982011   -3.596430    0.181682
     99          1           0      -14.272373   -4.361966    1.192259
    100          1           0      -12.212951   -1.446706    0.618064
    101          1           0      -20.062148    0.015701   -0.862339
    102          1           0      -19.857936   -2.546305   -0.070594
 ---------------------------------------------------------------------

 The electronic state is 1-A.
 Alpha  occ. eigenvalues --  -88.16453 -88.16356 -88.15988 -88.15655 -88.15643
 Alpha  occ. eigenvalues --  -24.34504 -24.34134 -24.34051 -24.33912 -24.33293
 Alpha  occ. eigenvalues --  -18.88236 -18.88114 -18.87423 -18.87278 -18.86873
 Alpha  occ. eigenvalues --  -14.06064 -14.05775 -14.05479 -14.05168 -14.04812
 Alpha  occ. eigenvalues --  -10.04144 -10.03975 -10.03850 -10.03799 -10.03299
 Alpha  occ. eigenvalues --  -10.03215 -10.03102 -10.03101 -10.03011 -10.02974
 Alpha  occ. eigenvalues --  -10.02872 -10.02557 -10.02283 -10.02134 -10.01768
 Alpha  occ. eigenvalues --  -10.00986 -10.00912 -10.00907 -10.00615 -10.00314
 Alpha  occ. eigenvalues --   -9.99989  -9.99921  -9.99873  -9.99568  -9.99543
 Alpha  occ. eigenvalues --   -9.99396  -9.99325  -9.99048  -9.98974  -9.98865
 Alpha  occ. eigenvalues --   -9.98845  -9.98798  -9.98725  -9.98572  -9.98542
 Alpha  occ. eigenvalues --   -9.98520  -9.98336  -9.98265  -9.98066  -9.98007
 Alpha  occ. eigenvalues --   -9.97955  -9.97904  -9.97563  -9.97323  -9.97102
 Alpha  occ. eigenvalues --   -9.96836  -9.96781  -9.96703  -9.96386  -9.96091
 Alpha  occ. eigenvalues --   -7.76624  -7.76527  -7.76178  -7.75835  -7.75822
 Alpha  occ. eigenvalues --   -5.78740  -5.78643  -5.78288  -5.78287  -5.78191
 Alpha  occ. eigenvalues --   -5.77944  -5.77931  -5.77846  -5.77844  -5.77748
 Alpha  occ. eigenvalues --   -5.77504  -5.77471  -5.77399  -5.77066  -5.77054
 Alpha  occ. eigenvalues --   -1.17822  -1.17522  -1.17463  -1.17385  -1.16719
 Alpha  occ. eigenvalues --   -1.05980  -1.05849  -1.05363  -1.05183  -1.04959
 Alpha  occ. eigenvalues --   -0.92601  -0.92296  -0.92283  -0.91897  -0.91606
 Alpha  occ. eigenvalues --   -0.87391  -0.87088  -0.86899  -0.86595  -0.85894
 Alpha  occ. eigenvalues --   -0.80818  -0.80350  -0.79983  -0.79539  -0.79043
 Alpha  occ. eigenvalues --   -0.78310  -0.77908  -0.77648  -0.77231  -0.76952
 Alpha  occ. eigenvalues --   -0.74168  -0.73472  -0.73294  -0.72970  -0.72663
 Alpha  occ. eigenvalues --   -0.72455  -0.72060  -0.71941  -0.71571  -0.71000
 Alpha  occ. eigenvalues --   -0.70900  -0.70535  -0.70074  -0.69221  -0.68286
 Alpha  occ. eigenvalues --   -0.66171  -0.64970  -0.63828  -0.63028  -0.62791
 Alpha  occ. eigenvalues --   -0.62300  -0.62028  -0.61817  -0.61367  -0.61324
 Alpha  occ. eigenvalues --   -0.58280  -0.57974  -0.57788  -0.57640  -0.57387
 Alpha  occ. eigenvalues --   -0.57208  -0.56997  -0.56822  -0.56751  -0.56206
 Alpha  occ. eigenvalues --   -0.55635  -0.55089  -0.54834  -0.54389  -0.53866
 Alpha  occ. eigenvalues --   -0.53698  -0.52606  -0.52478  -0.52387  -0.52097
 Alpha  occ. eigenvalues --   -0.51800  -0.51490  -0.51248  -0.51173  -0.50989
 Alpha  occ. eigenvalues --   -0.49196  -0.49097  -0.48877  -0.48602  -0.48474
 Alpha  occ. eigenvalues --   -0.48358  -0.48156  -0.48091  -0.47790  -0.47460
 Alpha  occ. eigenvalues --   -0.46338  -0.46289  -0.46107  -0.46071  -0.45988
 Alpha  occ. eigenvalues --   -0.45887  -0.45758  -0.45646  -0.45537  -0.45314
 Alpha  occ. eigenvalues --   -0.45201  -0.45167  -0.44925  -0.44777  -0.44679
 Alpha  occ. eigenvalues --   -0.44572  -0.44340  -0.44171  -0.43567  -0.43274
 Alpha  occ. eigenvalues --   -0.43065  -0.42665  -0.42654  -0.42591  -0.42472
 Alpha  occ. eigenvalues --   -0.42376  -0.42354  -0.42150  -0.42071  -0.41122
 Alpha  occ. eigenvalues --   -0.40794  -0.40576  -0.40376  -0.40280  -0.39890
 Alpha  occ. eigenvalues --   -0.39503  -0.39489  -0.39141  -0.38715  -0.38350
 Alpha  occ. eigenvalues --   -0.38204  -0.37911  -0.37875  -0.37645  -0.37459
 Alpha  occ. eigenvalues --   -0.37310  -0.36874  -0.36487  -0.36338  -0.36318
 Alpha  occ. eigenvalues --   -0.36145  -0.36053  -0.35873  -0.35753  -0.35664
 Alpha  occ. eigenvalues --   -0.35610  -0.35171  -0.34825  -0.34718  -0.34663
 Alpha  occ. eigenvalues --   -0.34126  -0.33992  -0.33465  -0.32590  -0.31629
 Alpha  occ. eigenvalues --   -0.30984  -0.28463  -0.28305  -0.28235  -0.28086
 Alpha  occ. eigenvalues --   -0.27913  -0.27690  -0.27543  -0.27432  -0.27339
 Alpha  occ. eigenvalues --   -0.26887  -0.26713  -0.26649  -0.26563  -0.26372
 Alpha  occ. eigenvalues --   -0.25981  -0.25510  -0.24634  -0.23492  -0.22182
 Alpha  occ. eigenvalues --   -0.21345
 Alpha virt. eigenvalues --   -0.06179  -0.04961  -0.03554  -0.02089  -0.01027
 Alpha virt. eigenvalues --   -0.00200   0.00054   0.00142   0.00622   0.00863
 Alpha virt. eigenvalues --    0.01314   0.02617   0.03719   0.04401   0.04461

  Beta  occ. eigenvalues --  -88.16453 -88.16356 -88.15988 -88.15655 -88.15643
  Beta  occ. eigenvalues --  -24.34504 -24.34134 -24.34051 -24.33912 -24.33293
  Beta  occ. eigenvalues --  -18.88236 -18.88114 -18.87423 -18.87278 -18.86873
  Beta  occ. eigenvalues --  -14.06064 -14.05775 -14.05479 -14.05168 -14.04812
  Beta  occ. eigenvalues --  -10.04144 -10.03975 -10.03850 -10.03799 -10.03299
  Beta  occ. eigenvalues --  -10.03215 -10.03102 -10.03101 -10.03011 -10.02974
  Beta  occ. eigenvalues --  -10.02872 -10.02557 -10.02283 -10.02134 -10.01768
  Beta  occ. eigenvalues --  -10.00986 -10.00912 -10.00907 -10.00615 -10.00314
  Beta  occ. eigenvalues --   -9.99989  -9.99921  -9.99873  -9.99568  -9.99543
  Beta  occ. eigenvalues --   -9.99396  -9.99325  -9.99048  -9.98974  -9.98865
  Beta  occ. eigenvalues --   -9.98845  -9.98798  -9.98725  -9.98572  -9.98542
  Beta  occ. eigenvalues --   -9.98520  -9.98336  -9.98265  -9.98066  -9.98007
  Beta  occ. eigenvalues --   -9.97955  -9.97904  -9.97563  -9.97323  -9.97102
  Beta  occ. eigenvalues --   -9.96836  -9.96781  -9.96703  -9.96386  -9.96091
  Beta  occ. eigenvalues --   -7.76624  -7.76527  -7.76178  -7.75835  -7.75822
  Beta  occ. eigenvalues --   -5.78740  -5.78643  -5.78288  -5.78287  -5.78191
  Beta  occ. eigenvalues --   -5.77944  -5.77931  -5.77846  -5.77844  -5.77748
  Beta  occ. eigenvalues --   -5.77504  -5.77471  -5.77399  -5.77066  -5.77054
  Beta  occ. eigenvalues --   -1.17822  -1.17522  -1.17463  -1.17385  -1.16719
  Beta  occ. eigenvalues --   -1.05980  -1.05849  -1.05363  -1.05183  -1.04959
  Beta  occ. eigenvalues --   -0.92601  -0.92296  -0.92283  -0.91897  -0.91606
  Beta  occ. eigenvalues --   -0.87391  -0.87088  -0.86899  -0.86595  -0.85894
  Beta  occ. eigenvalues --   -0.80818  -0.80350  -0.79983  -0.79539  -0.79043
  Beta  occ. eigenvalues --   -0.78310  -0.77908  -0.77648  -0.77231  -0.76952
  Beta  occ. eigenvalues --   -0.74168  -0.73472  -0.73294  -0.72970  -0.72663
  Beta  occ. eigenvalues --   -0.72455  -0.72060  -0.71941  -0.71571  -0.71000
  Beta  occ. eigenvalues --   -0.70900  -0.70535  -0.70074  -0.69221  -0.68286
  Beta  occ. eigenvalues --   -0.66171  -0.64970  -0.63828  -0.63028  -0.62791
  Beta  occ. eigenvalues --   -0.62300  -0.62028  -0.61817  -0.61367  -0.61324
  Beta  occ. eigenvalues --   -0.58280  -0.57974  -0.57788  -0.57640  -0.57387
  Beta  occ. eigenvalues --   -0.57208  -0.56997  -0.56822  -0.56751  -0.56206
  Beta  occ. eigenvalues --   -0.55635  -0.55089  -0.54834  -0.54389  -0.53866
  Beta  occ. eigenvalues --   -0.53698  -0.52606  -0.52478  -0.52387  -0.52097
  Beta  occ. eigenvalues --   -0.51800  -0.51490  -0.51248  -0.51173  -0.50989
  Beta  occ. eigenvalues --   -0.49196  -0.49097  -0.48877  -0.48602  -0.48474
  Beta  occ. eigenvalues --   -0.48358  -0.48156  -0.48091  -0.47790  -0.47460
  Beta  occ. eigenvalues --   -0.46338  -0.46289  -0.46107  -0.46071  -0.45988
  Beta  occ. eigenvalues --   -0.45887  -0.45758  -0.45646  -0.45537  -0.45314
  Beta  occ. eigenvalues --   -0.45201  -0.45167  -0.44925  -0.44777  -0.44679
  Beta  occ. eigenvalues --   -0.44572  -0.44340  -0.44171  -0.43567  -0.43274
  Beta  occ. eigenvalues --   -0.43065  -0.42665  -0.42654  -0.42591  -0.42472
  Beta  occ. eigenvalues --   -0.42376  -0.42354  -0.42150  -0.42071  -0.41122
  Beta  occ. eigenvalues --   -0.40794  -0.40576  -0.40376  -0.40280  -0.39890
  Beta  occ. eigenvalues --   -0.39503  -0.39489  -0.39141  -0.38715  -0.38350
  Beta  occ. eigenvalues --   -0.38204  -0.37911  -0.37875  -0.37645  -0.37459
  Beta  occ. eigenvalues --   -0.37310  -0.36874  -0.36487  -0.36338  -0.36318
  Beta  occ. eigenvalues --   -0.36145  -0.36053  -0.35873  -0.35753  -0.35664
  Beta  occ. eigenvalues --   -0.35610  -0.35171  -0.34825  -0.34718  -0.34663
  Beta  occ. eigenvalues --   -0.34126  -0.33992  -0.33465  -0.32590  -0.31629
  Beta  occ. eigenvalues --   -0.30984  -0.28463  -0.28305  -0.28235  -0.28086
  Beta  occ. eigenvalues --   -0.27913  -0.27690  -0.27543  -0.27432  -0.27339
  Beta  occ. eigenvalues --   -0.26887  -0.26713  -0.26649  -0.26563  -0.26372
  Beta  occ. eigenvalues --   -0.25981  -0.25510  -0.24634  -0.23492  -0.22182
  Beta  occ. eigenvalues --   -0.21345
  Beta virt. eigenvalues --   -0.06179  -0.04961  -0.03554  -0.02089  -0.01027
  Beta virt. eigenvalues --   -0.00200   0.00054   0.00142   0.00622   0.00863
  Beta virt. eigenvalues --    0.01314   0.02617   0.03719   0.04401   0.04461

 Mulliken charges and spin densities:
               1          2
     1  C   -0.017372  -0.000000
     2  C    0.078891  -0.000000
     3  N   -0.192144  -0.000000
     4  C    0.077861   0.000000
     5  C    0.115665  -0.000000
     6  O   -0.247152   0.000000
     7  C    0.064205  -0.000000
     8  C    0.024651   0.000000
     9  C   -0.151334  -0.000000
    10  C    0.147893   0.000000
    11  F   -0.096071   0.000000
    12  C    0.036471   0.000000
    13  C   -0.152016  -0.000000
    14  S    0.140188   0.000000
    15  C    0.029729  -0.000000
    16  C    0.069954   0.000000
    17  N   -0.189345   0.000000
    18  C    0.083374  -0.000000
    19  C    0.125731   0.000000
    20  O   -0.249382  -0.000000
    21  C    0.066031  -0.000000
    22  C    0.015275  -0.000000
    23  C   -0.153199   0.000000
    24  C    0.146782  -0.000000
    25  F   -0.095739   0.000000
    26  C    0.037479   0.000000
    27  C   -0.152917  -0.000000
    28  S    0.143130   0.000000
    29  C    0.026829   0.000000
    30  C    0.078703  -0.000000
    31  N   -0.209122   0.000000
    32  C    0.114559   0.000000
    33  C    0.105713  -0.000000
    34  O   -0.223719   0.000000
    35  C    0.061280   0.000000
    36  C    0.015502   0.000000
    37  C   -0.134145  -0.000000
    38  C    0.087701  -0.000000
    39  F   -0.111362   0.000000
    40  C    0.039653   0.000000
    41  C   -0.153000   0.000000
    42  S    0.179145   0.000000
    43  C    0.024442  -0.000000
    44  C    0.076911   0.000000
    45  N   -0.209779  -0.000000
    46  C    0.114493  -0.000000
    47  C    0.106030   0.000000
    48  O   -0.223764   0.000000
    49  C    0.060075  -0.000000
    50  C    0.014842   0.000000
    51  C   -0.134125   0.000000
    52  C    0.087960   0.000000
    53  F   -0.110394   0.000000
    54  C    0.040022  -0.000000
    55  C   -0.151069   0.000000
    56  S    0.174028  -0.000000
    57  C    0.026119   0.000000
    58  C    0.066873  -0.000000
    59  N   -0.190432   0.000000
    60  C    0.094688   0.000000
    61  C    0.126715  -0.000000
    62  O   -0.249422   0.000000
    63  C    0.064573  -0.000000
    64  C    0.013164   0.000000
    65  C   -0.166083  -0.000000
    66  C    0.127264  -0.000000
    67  F   -0.100341   0.000000
    68  C    0.067692   0.000000
    69  C   -0.121255  -0.000000
    70  S    0.158177   0.000000
    71  H   -0.016948   0.000000
    72  H   -0.002402  -0.000000
    73  H    0.052924   0.000000
    74  H    0.051266   0.000000
    75  H    0.049721   0.000000
    76  H   -0.013670  -0.000000
    77  H   -0.009499  -0.000000
    78  H   -0.006194  -0.000000
    79  H    0.053033   0.000000
    80  H    0.050514   0.000000
    81  H    0.052800  -0.000000
    82  H   -0.017353  -0.000000
    83  H   -0.010228   0.000000
    84  H   -0.007018  -0.000000
    85  H    0.055065  -0.000000
    86  H    0.049291  -0.000000
    87  H    0.046350  -0.000000
    88  H   -0.015399   0.000000
    89  H   -0.011397  -0.000000
    90  H   -0.009396  -0.000000
    91  H    0.050020   0.000000
    92  H    0.050242   0.000000
    93  H    0.055239   0.000000
    94  H   -0.010165  -0.000000
    95  H   -0.010131  -0.000000
    96  H   -0.008490   0.000000
    97  H    0.053225   0.000000
    98  H    0.052179   0.000000
    99  H    0.054465  -0.000000
   100  H   -0.012782   0.000000
   101  H   -0.008829   0.000000
   102  H    0.021788  -0.000000
 Sum of Mulliken charges =  -0.00000   0.00000

 Dipole moment (field-independent basis, Debye):
    X=              6.3125    Y=             -9.4770    Z=             -0.8887  Tot=             11.4215
 Quadrupole moment (field-independent basis, Debye-Ang):
   XX=           -417.3093   YY=           -383.2004   ZZ=           -429.4763
   XY=            -53.3093   XZ=            -42.3583   YZ=             -3.6585

 Normal termination of Gaussian 16 at Sun Jul 26 17:59:16 2020.
