 Gaussian 16, Revision A.03,
 Gaussian 16:  EM64L-G16RevA.03 25-Dec-2016

 ---------------------------------------------------------------
 #P uLC-wPBE/cc-pVDZ iop(3/107=0360500000, 3/108=0360500000) opt
 ---------------------------------------------------------------

 ---------
 H9 C12 F1
 ---------
 Symbolic Z-matrix:
 Charge =  0 Multiplicity = 1

 SCF Done:  E(ULC-wPBE) =  -562.114269391     A.U. after   16 cycles
 SCF Done:  E(ULC-wPBE) =  -562.149176045     A.U. after   14 cycles
 SCF Done:  E(ULC-wPBE) =  -562.155598533     A.U. after   14 cycles
 SCF Done:  E(ULC-wPBE) =  -562.155842400     A.U. after   13 cycles
 SCF Done:  E(ULC-wPBE) =  -562.155892677     A.U. after   13 cycles
 SCF Done:  E(ULC-wPBE) =  -562.155922209     A.U. after   10 cycles
 SCF Done:  E(ULC-wPBE) =  -562.155924541     A.U. after   10 cycles
 SCF Done:  E(ULC-wPBE) =  -562.155924874     A.U. after    8 cycles
 SCF Done:  E(ULC-wPBE) =  -562.155925020     A.U. after    8 cycles
 Optimization completed.
    -- Stationary point found.

                         Standard orientation:
 ---------------------------------------------------------------------
 Center     Atomic      Atomic             Coordinates (Angstroms)
 Number     Number       Type             X           Y           Z
 ---------------------------------------------------------------------
      1          6           0       -3.634887   -0.090095    0.028997
      2          6           0       -2.913999    0.927705    0.646137
      3          6           0       -1.524678    0.901134    0.649527
      4          6           0       -0.832008   -0.149076    0.039609
      5          6           0       -1.565512   -1.164357   -0.580282
      6          6           0       -2.955696   -1.136084   -0.586182
      7          6           0        0.653171   -0.215352    0.064669
      8          6           0        1.320333   -1.404413    0.375669
      9          6           0        2.708012   -1.482081    0.388032
     10          6           0        3.467840   -0.357116    0.083820
     11          6           0        2.834774    0.839490   -0.229405
     12          6           0        1.450573    0.889498   -0.232164
     13          9           0        0.862348    2.060472   -0.545584
     14          1           0       -4.727508   -0.066005    0.025346
     15          1           0       -3.439406    1.753326    1.132932
     16          1           0       -0.967304    1.703162    1.137284
     17          1           0       -1.036908   -1.980743   -1.079833
     18          1           0       -3.511956   -1.936307   -1.081049
     19          1           0        0.724178   -2.284550    0.630281
     20          1           0        3.197616   -2.424814    0.642171
     21          1           0        4.559237   -0.407331    0.091538
     22          1           0        3.393384    1.743504   -0.478991
 ---------------------------------------------------------------------

 The electronic state is 1-A.
 Alpha  occ. eigenvalues --  -24.47927 -10.18430 -10.11904 -10.11572 -10.11331
 Alpha  occ. eigenvalues --  -10.11233 -10.10926 -10.10644 -10.10409 -10.10346
 Alpha  occ. eigenvalues --  -10.10299 -10.10260 -10.10223  -1.32417  -1.00940
 Alpha  occ. eigenvalues --   -0.98683  -0.91570  -0.88114  -0.87539  -0.85520
 Alpha  occ. eigenvalues --   -0.75927  -0.74641  -0.72169  -0.70951  -0.66422
 Alpha  occ. eigenvalues --   -0.63620  -0.61005  -0.60161  -0.58451  -0.57106
 Alpha  occ. eigenvalues --   -0.56009  -0.54945  -0.53701  -0.53029  -0.50776
 Alpha  occ. eigenvalues --   -0.50139  -0.48367  -0.48094  -0.46525  -0.44620
 Alpha  occ. eigenvalues --   -0.43757  -0.38331  -0.35518  -0.35255  -0.32713
 Alpha virt. eigenvalues --    0.04223   0.07311   0.07470   0.10033   0.15016
 Alpha virt. eigenvalues --    0.15488   0.18464   0.19691   0.20632   0.21618
 Alpha virt. eigenvalues --    0.22773   0.23662   0.24239   0.25495   0.26991

  Beta  occ. eigenvalues --  -24.47927 -10.18430 -10.11904 -10.11572 -10.11331
  Beta  occ. eigenvalues --  -10.11233 -10.10926 -10.10644 -10.10409 -10.10346
  Beta  occ. eigenvalues --  -10.10299 -10.10260 -10.10223  -1.32417  -1.00940
  Beta  occ. eigenvalues --   -0.98683  -0.91570  -0.88114  -0.87539  -0.85520
  Beta  occ. eigenvalues --   -0.75927  -0.74641  -0.72169  -0.70951  -0.66422
  Beta  occ. eigenvalues --   -0.63620  -0.61005  -0.60161  -0.58451  -0.57106
  Beta  occ. eigenvalues --   -0.56009  -0.54945  -0.53701  -0.53029  -0.50776
  Beta  occ. eigenvalues --   -0.50139  -0.48367  -0.48094  -0.46525  -0.44620
  Beta  occ. eigenvalues --   -0.43757  -0.38331  -0.35518  -0.35255  -0.32713
  Beta virt. eigenvalues --    0.04223   0.07311   0.07470   0.10033   0.15016
  Beta virt. eigenvalues --    0.15488   0.18464   0.19691   0.20632   0.21618
  Beta virt. eigenvalues --    0.22773   0.23662   0.24239   0.25495   0.26991

 Mulliken charges and spin densities:
               1          2
     1  C    0.002633  -0.000000
     2  C    0.010482   0.000000
     3  C    0.013156  -0.000000
     4  C   -0.003827   0.000000
     5  C   -0.003414  -0.000000
     6  C    0.011414   0.000000
     7  C   -0.055216  -0.000000
     8  C    0.006500  -0.000000
     9  C    0.013166  -0.000000
    10  C    0.014375   0.000000
    11  C    0.000614  -0.000000
    12  C    0.095299   0.000000
    13  F   -0.129506  -0.000000
    14  H    0.000775   0.000000
    15  H    0.002440   0.000000
    16  H   -0.003381   0.000000
    17  H   -0.005378  -0.000000
    18  H    0.001629  -0.000000
    19  H    0.002070   0.000000
    20  H    0.002726   0.000000
    21  H    0.007662   0.000000
    22  H    0.015781   0.000000
 Sum of Mulliken charges =  -0.00000   0.00000

 Dipole moment (field-independent basis, Debye):
    X=              0.4306    Y=             -0.9940    Z=              0.3138  Tot=              1.1278
 Quadrupole moment (field-independent basis, Debye-Ang):
   XX=            -62.3646   YY=            -69.9974   ZZ=            -76.9721
   XY=             -0.3735   XZ=              0.0971   YZ=              2.3693

 Normal termination of Gaussian 16 at Fri Jul 24 14:22:41 2020.
