 Gaussian 16, Revision A.03,
 Gaussian 16:  EM64L-G16RevA.03 25-Dec-2016

 ---------------------------------------------------------------
 #P uLC-wPBE/cc-pVDZ iop(3/107=0135400000, 3/108=0135400000) opt
 ---------------------------------------------------------------

 -------------
 H11 C21 S3 N9
 -------------
 Symbolic Z-matrix:
 Charge =  0 Multiplicity = 1

 SCF Done:  E(ULC-wPBE) =  -2492.57846345     A.U. after   16 cycles
 SCF Done:  E(ULC-wPBE) =  -2492.62787555     A.U. after   14 cycles
 SCF Done:  E(ULC-wPBE) =  -2492.64938161     A.U. after   15 cycles
 SCF Done:  E(ULC-wPBE) =  -2492.65011015     A.U. after   14 cycles
 SCF Done:  E(ULC-wPBE) =  -2492.65065825     A.U. after   13 cycles
 SCF Done:  E(ULC-wPBE) =  -2492.65078110     A.U. after   12 cycles
 SCF Done:  E(ULC-wPBE) =  -2492.65083124     A.U. after   12 cycles
 SCF Done:  E(ULC-wPBE) =  -2492.65084003     A.U. after   11 cycles
 SCF Done:  E(ULC-wPBE) =  -2492.65084309     A.U. after    9 cycles
 SCF Done:  E(ULC-wPBE) =  -2492.65084380     A.U. after    8 cycles
 SCF Done:  E(ULC-wPBE) =  -2492.65084390     A.U. after    7 cycles
 SCF Done:  E(ULC-wPBE) =  -2492.65084390     A.U. after    6 cycles
 Optimization completed.
    -- Stationary point found.

                         Standard orientation:
 ---------------------------------------------------------------------
 Center     Atomic      Atomic             Coordinates (Angstroms)
 Number     Number       Type             X           Y           Z
 ---------------------------------------------------------------------
      1          6           0      -10.588482    2.320458    0.047426
      2          6           0      -10.656363    0.956422   -0.264279
      3          7           0       -9.572212    0.168357   -0.338194
      4          6           0       -8.398675    0.782892   -0.090810
      5          7           0       -8.205229    2.084352    0.218105
      6          6           0       -9.310517    2.840911    0.284157
      7          6           0       -7.168900   -0.032669   -0.156220
      8          7           0       -7.102948   -1.315012   -0.441150
      9          6           0       -5.807332   -1.743079   -0.410407
     10          6           0       -4.840377   -0.793279   -0.097391
     11         16           0       -5.623413    0.743326    0.176448
     12          6           0       -3.391634   -0.976986   -0.001505
     13          6           0       -2.813374   -2.225954    0.319622
     14          7           0       -1.495047   -2.435760    0.387874
     15          6           0       -0.719026   -1.359088    0.149613
     16          7           0       -1.142243   -0.109500   -0.143741
     17          6           0       -2.464398    0.063884   -0.222472
     18          6           0        0.743186   -1.532894    0.211902
     19          7           0        1.378874   -2.652081    0.485592
     20          6           0        2.728282   -2.451898    0.456121
     21          6           0        3.165997   -1.165852    0.155601
     22         16           0        1.776268   -0.142381   -0.108265
     23          6           0        4.542818   -0.677992    0.063340
     24          6           0        4.905219    0.664550    0.303572
     25          7           0        6.163930    1.104684    0.228970
     26          6           0        7.103827    0.183479   -0.081057
     27          7           0        6.891236   -1.123534   -0.338985
     28          6           0        5.619411   -1.528952   -0.273282
     29          6           0        8.489020    0.684159   -0.141097
     30          7           0        9.556083   -0.031034   -0.423813
     31          6           0       10.677717    0.754771   -0.389792
     32          6           0       10.476879    2.085531   -0.078899
     33         16           0        8.797712    2.389209    0.189159
     34          1           0      -11.487781    2.947383    0.103056
     35          1           0      -11.624060    0.467002   -0.464950
     36          1           0       -9.160805    3.903616    0.536273
     37          1           0       -5.585965   -2.790456   -0.654524
     38          1           0       -3.454395   -3.094326    0.546031
     39          1           0       -2.811795    1.078758   -0.480865
     40          1           0        3.397178   -3.290166    0.691440
     41          1           0        4.139579    1.411385    0.575384
     42          1           0        5.435764   -2.589236   -0.515516
     43          1           0       11.655554    0.304837   -0.604635
     44          1           0       11.220881    2.884969    0.003373
 ---------------------------------------------------------------------

 The electronic state is 1-A.
 Alpha  occ. eigenvalues --  -88.19808 -88.19547 -88.18606 -14.10251 -14.10204
 Alpha  occ. eigenvalues --  -14.09739 -14.09665 -14.09642 -14.09243 -14.09151
 Alpha  occ. eigenvalues --  -14.08995 -14.07991 -10.06827 -10.06671 -10.06101
 Alpha  occ. eigenvalues --  -10.05077 -10.04846 -10.04472 -10.04455 -10.04297
 Alpha  occ. eigenvalues --  -10.04233 -10.03975 -10.03808 -10.03784 -10.03437
 Alpha  occ. eigenvalues --  -10.03168 -10.02698 -10.02299 -10.02183 -10.01998
 Alpha  occ. eigenvalues --  -10.01195 -10.01186 -10.00873  -7.80072  -7.79814
 Alpha  occ. eigenvalues --   -7.78876  -5.82103  -5.81844  -5.81679  -5.81421
 Alpha  occ. eigenvalues --   -5.81360  -5.81100  -5.80892  -5.80471  -5.80189
 Alpha  occ. eigenvalues --   -1.00290  -1.00173  -0.99644  -0.97180  -0.96919
 Alpha  occ. eigenvalues --   -0.95849  -0.90727  -0.90626  -0.90145  -0.85603
 Alpha  occ. eigenvalues --   -0.85027  -0.82611  -0.81110  -0.80874  -0.80322
 Alpha  occ. eigenvalues --   -0.77816  -0.76060  -0.74422  -0.70741  -0.69803
 Alpha  occ. eigenvalues --   -0.68925  -0.68727  -0.68313  -0.67678  -0.62049
 Alpha  occ. eigenvalues --   -0.61702  -0.61187  -0.60431  -0.59978  -0.59450
 Alpha  occ. eigenvalues --   -0.56530  -0.56001  -0.55245  -0.54731  -0.54608
 Alpha  occ. eigenvalues --   -0.53334  -0.53146  -0.51016  -0.49722  -0.49273
 Alpha  occ. eigenvalues --   -0.48896  -0.48781  -0.48296  -0.47527  -0.47348
 Alpha  occ. eigenvalues --   -0.45871  -0.45811  -0.45398  -0.45195  -0.44927
 Alpha  occ. eigenvalues --   -0.44646  -0.44384  -0.44231  -0.43827  -0.43149
 Alpha  occ. eigenvalues --   -0.41197  -0.40848  -0.39986  -0.38474  -0.37539
 Alpha  occ. eigenvalues --   -0.37396  -0.36991  -0.36792  -0.35210  -0.34960
 Alpha  occ. eigenvalues --   -0.34880  -0.34553  -0.33224  -0.33104  -0.32480
 Alpha  occ. eigenvalues --   -0.31648  -0.31432  -0.30579  -0.30388  -0.29430
 Alpha  occ. eigenvalues --   -0.29247  -0.28668  -0.28202  -0.26407
 Alpha virt. eigenvalues --   -0.06681  -0.04597  -0.02614  -0.02309  -0.02239
 Alpha virt. eigenvalues --   -0.01778   0.01293   0.03283   0.04768   0.05474
 Alpha virt. eigenvalues --    0.05606   0.06852   0.06957   0.08345   0.09294

  Beta  occ. eigenvalues --  -88.19808 -88.19547 -88.18606 -14.10251 -14.10204
  Beta  occ. eigenvalues --  -14.09739 -14.09665 -14.09642 -14.09243 -14.09151
  Beta  occ. eigenvalues --  -14.08995 -14.07991 -10.06827 -10.06671 -10.06101
  Beta  occ. eigenvalues --  -10.05077 -10.04846 -10.04472 -10.04455 -10.04297
  Beta  occ. eigenvalues --  -10.04233 -10.03975 -10.03808 -10.03784 -10.03437
  Beta  occ. eigenvalues --  -10.03168 -10.02698 -10.02299 -10.02183 -10.01998
  Beta  occ. eigenvalues --  -10.01195 -10.01186 -10.00873  -7.80072  -7.79814
  Beta  occ. eigenvalues --   -7.78876  -5.82103  -5.81844  -5.81679  -5.81421
  Beta  occ. eigenvalues --   -5.81360  -5.81100  -5.80892  -5.80471  -5.80189
  Beta  occ. eigenvalues --   -1.00290  -1.00173  -0.99644  -0.97180  -0.96919
  Beta  occ. eigenvalues --   -0.95849  -0.90727  -0.90626  -0.90145  -0.85603
  Beta  occ. eigenvalues --   -0.85027  -0.82611  -0.81110  -0.80874  -0.80322
  Beta  occ. eigenvalues --   -0.77816  -0.76060  -0.74422  -0.70741  -0.69803
  Beta  occ. eigenvalues --   -0.68925  -0.68727  -0.68313  -0.67678  -0.62049
  Beta  occ. eigenvalues --   -0.61702  -0.61187  -0.60431  -0.59978  -0.59450
  Beta  occ. eigenvalues --   -0.56530  -0.56001  -0.55245  -0.54731  -0.54608
  Beta  occ. eigenvalues --   -0.53334  -0.53146  -0.51016  -0.49722  -0.49273
  Beta  occ. eigenvalues --   -0.48896  -0.48781  -0.48296  -0.47527  -0.47348
  Beta  occ. eigenvalues --   -0.45871  -0.45811  -0.45398  -0.45195  -0.44927
  Beta  occ. eigenvalues --   -0.44646  -0.44384  -0.44231  -0.43827  -0.43149
  Beta  occ. eigenvalues --   -0.41197  -0.40848  -0.39986  -0.38474  -0.37539
  Beta  occ. eigenvalues --   -0.37396  -0.36991  -0.36792  -0.35210  -0.34960
  Beta  occ. eigenvalues --   -0.34880  -0.34553  -0.33224  -0.33104  -0.32480
  Beta  occ. eigenvalues --   -0.31648  -0.31432  -0.30579  -0.30388  -0.29430
  Beta  occ. eigenvalues --   -0.29247  -0.28668  -0.28202  -0.26407
  Beta virt. eigenvalues --   -0.06681  -0.04597  -0.02614  -0.02309  -0.02239
  Beta virt. eigenvalues --   -0.01778   0.01293   0.03283   0.04768   0.05474
  Beta virt. eigenvalues --    0.05606   0.06852   0.06957   0.08345   0.09294

 Mulliken charges and spin densities:
               1          2
     1  C   -0.048915   0.000000
     2  C    0.116240  -0.000000
     3  N   -0.158321   0.000000
     4  C    0.171775  -0.000000
     5  N   -0.201671   0.000000
     6  C    0.123302  -0.000000
     7  C   -0.018163  -0.000000
     8  N   -0.145555   0.000000
     9  C    0.121017  -0.000000
    10  C   -0.213769  -0.000000
    11  S    0.186766   0.000000
    12  C   -0.046364   0.000000
    13  C    0.123619  -0.000000
    14  N   -0.153737  -0.000000
    15  C    0.171527   0.000000
    16  N   -0.197381   0.000000
    17  C    0.134934   0.000000
    18  C   -0.019523  -0.000000
    19  N   -0.146949   0.000000
    20  C    0.121009  -0.000000
    21  C   -0.212479   0.000000
    22  S    0.186952  -0.000000
    23  C   -0.047466   0.000000
    24  C    0.132437  -0.000000
    25  N   -0.196056   0.000000
    26  C    0.177783   0.000000
    27  N   -0.154259  -0.000000
    28  C    0.121647  -0.000000
    29  C   -0.038947   0.000000
    30  N   -0.152018  -0.000000
    31  C    0.118371  -0.000000
    32  C   -0.157987   0.000000
    33  S    0.188555  -0.000000
    34  H    0.001144  -0.000000
    35  H    0.014647  -0.000000
    36  H    0.014573  -0.000000
    37  H    0.007484  -0.000000
    38  H    0.009382  -0.000000
    39  H    0.012367  -0.000000
    40  H    0.007064   0.000000
    41  H    0.010919  -0.000000
    42  H    0.008024  -0.000000
    43  H    0.001921  -0.000000
    44  H    0.026100   0.000000
 Sum of Mulliken charges =  -0.00000  -0.00000

 Dipole moment (field-independent basis, Debye):
    X=             -4.3688    Y=              4.0512    Z=              0.3610  Tot=              5.9690
 Quadrupole moment (field-independent basis, Debye-Ang):
   XX=           -154.8803   YY=           -199.3017   ZZ=           -208.4314
   XY=            -11.9385   XZ=             -0.2505   YZ=              0.8956

 Normal termination of Gaussian 16 at Sat Jul 25 11:29:16 2020.
