 Gaussian 16, Revision A.03,
 Gaussian 16:  EM64L-G16RevA.03 25-Dec-2016

 ---------------------------------------------------------------
 #P uLC-wPBE/cc-pVDZ iop(3/107=0429100000, 3/108=0429100000) opt
 ---------------------------------------------------------------

 -------------
 H17 C30 S3 F3
 -------------
 Symbolic Z-matrix:
 Charge =  0 Multiplicity = 1

 SCF Done:  E(ULC-wPBE) =  -2646.13956734     A.U. after   16 cycles
 SCF Done:  E(ULC-wPBE) =  -2646.19570474     A.U. after   14 cycles
 SCF Done:  E(ULC-wPBE) =  -2646.23326450     A.U. after   15 cycles
 SCF Done:  E(ULC-wPBE) =  -2646.23523800     A.U. after   14 cycles
 SCF Done:  E(ULC-wPBE) =  -2646.23566802     A.U. after   13 cycles
 SCF Done:  E(ULC-wPBE) =  -2646.23582366     A.U. after   13 cycles
 SCF Done:  E(ULC-wPBE) =  -2646.23595849     A.U. after   12 cycles
 SCF Done:  E(ULC-wPBE) =  -2646.23602647     A.U. after   12 cycles
 SCF Done:  E(ULC-wPBE) =  -2646.23605796     A.U. after   11 cycles
 SCF Done:  E(ULC-wPBE) =  -2646.23606596     A.U. after   11 cycles
 SCF Done:  E(ULC-wPBE) =  -2646.23606831     A.U. after   11 cycles
 SCF Done:  E(ULC-wPBE) =  -2646.23606939     A.U. after    8 cycles
 SCF Done:  E(ULC-wPBE) =  -2646.23607026     A.U. after    9 cycles
 SCF Done:  E(ULC-wPBE) =  -2646.23607047     A.U. after    9 cycles
 SCF Done:  E(ULC-wPBE) =  -2646.23607058     A.U. after    8 cycles
 SCF Done:  E(ULC-wPBE) =  -2646.23607061     A.U. after    6 cycles
 Optimization completed.
    -- Stationary point found.

                         Standard orientation:
 ---------------------------------------------------------------------
 Center     Atomic      Atomic             Coordinates (Angstroms)
 Number     Number       Type             X           Y           Z
 ---------------------------------------------------------------------
      1          6           0      -10.720937    2.843385    0.312846
      2          6           0       -9.495979    3.348424   -0.099122
      3          6           0       -8.397296    2.510940   -0.208425
      4          6           0       -8.500875    1.153700    0.100181
      5          6           0       -9.737236    0.654692    0.515506
      6          6           0      -10.835293    1.494057    0.617204
      7          6           0       -7.331552    0.268502   -0.006270
      8          6           0       -7.280329   -1.074347   -0.230362
      9          9           0       -8.366923   -1.835350   -0.405298
     10          6           0       -5.982331   -1.635328   -0.290607
     11          6           0       -5.017199   -0.691200   -0.104418
     12         16           0       -5.717500    0.861406    0.155922
     13          6           0       -3.558716   -0.878546   -0.094261
     14          6           0       -2.693323    0.125952   -0.524820
     15          6           0       -1.323781   -0.068199   -0.520664
     16          6           0       -0.768756   -1.272063   -0.085065
     17          6           0       -1.636048   -2.278211    0.347303
     18          6           0       -3.004722   -2.081364    0.344074
     19          6           0        0.685933   -1.472265   -0.075896
     20          6           0        1.400291   -2.632081   -0.123933
     21          9           0        0.836883   -3.843239   -0.197663
     22          6           0        2.807323   -2.484513   -0.112441
     23          6           0        3.174870   -1.173343   -0.051636
     24         16           0        1.792011   -0.147798    0.005596
     25          6           0        4.535368   -0.616088   -0.018380
     26          6           0        4.826706    0.626437   -0.579761
     27          6           0        6.111703    1.138535   -0.553432
     28          6           0        7.153526    0.420979    0.036541
     29          6           0        6.859838   -0.820697    0.602675
     30          6           0        5.574736   -1.330308    0.576831
     31          6           0        8.521955    0.956155    0.060163
     32          6           0        8.941637    2.252090    0.006492
     33          9           0        8.108123    3.294682   -0.081526
     34          6           0       10.345902    2.440590    0.061515
     35          6           0       10.990036    1.250246    0.155614
     36         16           0        9.906073   -0.071239    0.171558
     37          1           0      -11.586361    3.500890    0.396126
     38          1           0       -9.393797    4.405509   -0.345236
     39          1           0       -7.444423    2.917111   -0.550457
     40          1           0       -9.835933   -0.400062    0.763844
     41          1           0      -11.792440    1.087048    0.944041
     42          1           0       -5.795735   -2.686100   -0.496718
     43          1           0       -3.097633    1.069924   -0.891805
     44          1           0       -0.674674    0.729859   -0.882686
     45          1           0       -1.231637   -3.222910    0.703914
     46          1           0       -3.657853   -2.872090    0.712830
     47          1           0        3.495424   -3.323079   -0.180450
     48          1           0        4.036694    1.198618   -1.067571
     49          1           0        6.312191    2.106055   -1.008274
     50          1           0        7.647627   -1.393785    1.092911
     51          1           0        5.369124   -2.289962    1.050561
     52          1           0       10.823486    3.416405    0.034732
     53          1           0       12.061156    1.077027    0.210695
 ---------------------------------------------------------------------

 The electronic state is 1-A.
 Alpha  occ. eigenvalues --  -88.35043 -88.34815 -88.34370 -24.52882 -24.52776
 Alpha  occ. eigenvalues --  -24.52231 -10.23064 -10.22963 -10.22421 -10.19052
 Alpha  occ. eigenvalues --  -10.18586 -10.18391 -10.18200 -10.18033 -10.17529
 Alpha  occ. eigenvalues --  -10.17208 -10.16966 -10.16948 -10.16649 -10.16180
 Alpha  occ. eigenvalues --  -10.15770 -10.15538 -10.15486 -10.15462 -10.15432
 Alpha  occ. eigenvalues --  -10.15262 -10.15219 -10.15205 -10.15136 -10.15045
 Alpha  occ. eigenvalues --  -10.14961 -10.14403 -10.14270 -10.14182 -10.14132
 Alpha  occ. eigenvalues --  -10.14112  -7.95884  -7.95645  -7.95200  -5.97289
 Alpha  occ. eigenvalues --   -5.97058  -5.96751  -5.96612  -5.96523  -5.96322
 Alpha  occ. eigenvalues --   -5.96078  -5.96065  -5.95622  -1.37506  -1.37400
 Alpha  occ. eigenvalues --   -1.36850  -1.08346  -1.07861  -1.07709  -1.04733
 Alpha  occ. eigenvalues --   -1.03921  -1.02898  -0.97608  -0.95876  -0.93691
 Alpha  occ. eigenvalues --   -0.92614  -0.92267  -0.91216  -0.90989  -0.90542
 Alpha  occ. eigenvalues --   -0.90176  -0.89630  -0.87739  -0.85584  -0.79978
 Alpha  occ. eigenvalues --   -0.78630  -0.77794  -0.77161  -0.76142  -0.75566
 Alpha  occ. eigenvalues --   -0.73393  -0.72407  -0.72079  -0.71741  -0.71271
 Alpha  occ. eigenvalues --   -0.70910  -0.69477  -0.68732  -0.68082  -0.64158
 Alpha  occ. eigenvalues --   -0.63070  -0.62688  -0.62004  -0.61952  -0.61646
 Alpha  occ. eigenvalues --   -0.61481  -0.61154  -0.60897  -0.60104  -0.59829
 Alpha  occ. eigenvalues --   -0.59276  -0.59048  -0.57463  -0.57309  -0.56478
 Alpha  occ. eigenvalues --   -0.56393  -0.56270  -0.56019  -0.55616  -0.55044
 Alpha  occ. eigenvalues --   -0.54750  -0.53728  -0.53629  -0.53089  -0.52266
 Alpha  occ. eigenvalues --   -0.51527  -0.51117  -0.50905  -0.50409  -0.49971
 Alpha  occ. eigenvalues --   -0.49514  -0.48481  -0.48226  -0.48017  -0.47430
 Alpha  occ. eigenvalues --   -0.46822  -0.46545  -0.45862  -0.45236  -0.42998
 Alpha  occ. eigenvalues --   -0.40996  -0.38538  -0.37858  -0.37603  -0.36833
 Alpha  occ. eigenvalues --   -0.36690  -0.36629  -0.36217  -0.34551  -0.31839
 Alpha  occ. eigenvalues --   -0.29571
 Alpha virt. eigenvalues --   -0.00159   0.02320   0.05351   0.06244   0.06621
 Alpha virt. eigenvalues --    0.07681   0.07814   0.10326   0.11774   0.12587
 Alpha virt. eigenvalues --    0.12852   0.13147   0.15638   0.15928   0.16142

  Beta  occ. eigenvalues --  -88.35043 -88.34815 -88.34370 -24.52882 -24.52776
  Beta  occ. eigenvalues --  -24.52231 -10.23064 -10.22963 -10.22421 -10.19052
  Beta  occ. eigenvalues --  -10.18586 -10.18391 -10.18200 -10.18033 -10.17529
  Beta  occ. eigenvalues --  -10.17208 -10.16966 -10.16948 -10.16649 -10.16180
  Beta  occ. eigenvalues --  -10.15770 -10.15538 -10.15486 -10.15462 -10.15432
  Beta  occ. eigenvalues --  -10.15262 -10.15219 -10.15205 -10.15136 -10.15045
  Beta  occ. eigenvalues --  -10.14961 -10.14403 -10.14270 -10.14182 -10.14132
  Beta  occ. eigenvalues --  -10.14112  -7.95884  -7.95645  -7.95200  -5.97289
  Beta  occ. eigenvalues --   -5.97058  -5.96751  -5.96612  -5.96523  -5.96322
  Beta  occ. eigenvalues --   -5.96078  -5.96065  -5.95622  -1.37506  -1.37400
  Beta  occ. eigenvalues --   -1.36850  -1.08346  -1.07861  -1.07709  -1.04733
  Beta  occ. eigenvalues --   -1.03921  -1.02898  -0.97608  -0.95876  -0.93691
  Beta  occ. eigenvalues --   -0.92614  -0.92267  -0.91216  -0.90989  -0.90542
  Beta  occ. eigenvalues --   -0.90176  -0.89630  -0.87739  -0.85584  -0.79978
  Beta  occ. eigenvalues --   -0.78630  -0.77794  -0.77161  -0.76142  -0.75566
  Beta  occ. eigenvalues --   -0.73393  -0.72407  -0.72079  -0.71741  -0.71271
  Beta  occ. eigenvalues --   -0.70910  -0.69477  -0.68732  -0.68082  -0.64158
  Beta  occ. eigenvalues --   -0.63070  -0.62688  -0.62004  -0.61952  -0.61646
  Beta  occ. eigenvalues --   -0.61481  -0.61154  -0.60897  -0.60104  -0.59829
  Beta  occ. eigenvalues --   -0.59276  -0.59048  -0.57463  -0.57309  -0.56478
  Beta  occ. eigenvalues --   -0.56393  -0.56270  -0.56019  -0.55616  -0.55044
  Beta  occ. eigenvalues --   -0.54750  -0.53728  -0.53629  -0.53089  -0.52266
  Beta  occ. eigenvalues --   -0.51527  -0.51117  -0.50905  -0.50409  -0.49971
  Beta  occ. eigenvalues --   -0.49514  -0.48481  -0.48226  -0.48017  -0.47430
  Beta  occ. eigenvalues --   -0.46822  -0.46545  -0.45862  -0.45236  -0.42998
  Beta  occ. eigenvalues --   -0.40996  -0.38538  -0.37858  -0.37603  -0.36833
  Beta  occ. eigenvalues --   -0.36690  -0.36629  -0.36217  -0.34551  -0.31839
  Beta  occ. eigenvalues --   -0.29571
  Beta virt. eigenvalues --   -0.00159   0.02320   0.05351   0.06244   0.06621
  Beta virt. eigenvalues --    0.07681   0.07814   0.10326   0.11774   0.12587
  Beta virt. eigenvalues --    0.12852   0.13147   0.15638   0.15928   0.16142

 Mulliken charges and spin densities:
               1          2
     1  C   -0.004838   0.000000
     2  C    0.005909   0.000000
     3  C   -0.024219  -0.000000
     4  C    0.035843   0.000000
     5  C   -0.018521  -0.000000
     6  C    0.008332  -0.000000
     7  C   -0.184080  -0.000000
     8  C    0.125989  -0.000000
     9  F   -0.128696  -0.000000
    10  C    0.017180  -0.000000
    11  C   -0.154087  -0.000000
    12  S    0.175184  -0.000000
    13  C    0.039833   0.000000
    14  C   -0.004410  -0.000000
    15  C   -0.011326   0.000000
    16  C    0.049627   0.000000
    17  C   -0.004249  -0.000000
    18  C   -0.002573   0.000000
    19  C   -0.185822  -0.000000
    20  C    0.121857   0.000000
    21  F   -0.127916  -0.000000
    22  C    0.020829   0.000000
    23  C   -0.153115  -0.000000
    24  S    0.177583  -0.000000
    25  C    0.037949   0.000000
    26  C   -0.001677   0.000000
    27  C   -0.005080  -0.000000
    28  C    0.051786   0.000000
    29  C   -0.006127  -0.000000
    30  C   -0.006825   0.000000
    31  C   -0.189084   0.000000
    32  C    0.104019  -0.000000
    33  F   -0.128678   0.000000
    34  C    0.039039   0.000000
    35  C   -0.137832  -0.000000
    36  S    0.170860   0.000000
    37  H    0.010472  -0.000000
    38  H    0.011640   0.000000
    39  H    0.010996  -0.000000
    40  H    0.011747  -0.000000
    41  H    0.012441  -0.000000
    42  H    0.024051   0.000000
    43  H    0.014271  -0.000000
    44  H    0.015063  -0.000000
    45  H    0.014715   0.000000
    46  H    0.007404  -0.000000
    47  H    0.024587   0.000000
    48  H    0.015111  -0.000000
    49  H    0.016075  -0.000000
    50  H    0.016044  -0.000000
    51  H    0.007470  -0.000000
    52  H    0.030197  -0.000000
    53  H    0.055050   0.000000
 Sum of Mulliken charges =  -0.00000   0.00000

 Dipole moment (field-independent basis, Debye):
    X=              3.3537    Y=              0.4999    Z=              0.1450  Tot=              3.3938
 Quadrupole moment (field-independent basis, Debye-Ang):
   XX=           -177.5514   YY=           -209.7672   ZZ=           -231.0827
   XY=             -5.5325   XZ=             -1.2225   YZ=             -7.1483

 Normal termination of Gaussian 16 at Sat Jul 25 02:07:01 2020.
