 Gaussian 16, Revision A.03,
 Gaussian 16:  EM64L-G16RevA.03 25-Dec-2016

 ---------------------------------------------------------------
 #P uLC-wPBE/cc-pVDZ iop(3/107=0218600000, 3/108=0218600000) opt
 ---------------------------------------------------------------

 ---------------
 H8 C11 S1 O1 F2
 ---------------
 Symbolic Z-matrix:
 Charge =  0 Multiplicity = 1

 SCF Done:  E(ULC-wPBE) =  -1096.34257061     A.U. after   16 cycles
 SCF Done:  E(ULC-wPBE) =  -1096.37585839     A.U. after   15 cycles
 SCF Done:  E(ULC-wPBE) =  -1096.38462801     A.U. after   13 cycles
 SCF Done:  E(ULC-wPBE) =  -1096.38532243     A.U. after   13 cycles
 SCF Done:  E(ULC-wPBE) =  -1096.38564555     A.U. after   13 cycles
 SCF Done:  E(ULC-wPBE) =  -1096.38586635     A.U. after   13 cycles
 SCF Done:  E(ULC-wPBE) =  -1096.38598591     A.U. after   11 cycles
 SCF Done:  E(ULC-wPBE) =  -1096.38600405     A.U. after   13 cycles
 SCF Done:  E(ULC-wPBE) =  -1096.38603510     A.U. after   13 cycles
 SCF Done:  E(ULC-wPBE) =  -1096.38603956     A.U. after   11 cycles
 SCF Done:  E(ULC-wPBE) =  -1096.38604093     A.U. after    9 cycles
 SCF Done:  E(ULC-wPBE) =  -1096.38604150     A.U. after    8 cycles
 SCF Done:  E(ULC-wPBE) =  -1096.38604188     A.U. after    8 cycles
 SCF Done:  E(ULC-wPBE) =  -1096.38604191     A.U. after    8 cycles
 Optimization completed.
    -- Stationary point found.

                         Standard orientation:
 ---------------------------------------------------------------------
 Center     Atomic      Atomic             Coordinates (Angstroms)
 Number     Number       Type             X           Y           Z
 ---------------------------------------------------------------------
      1          6           0       -3.611330    0.505530    0.049008
      2          6           0       -3.141528   -0.678862    0.622200
      3          6           0       -1.780103   -0.960503    0.553746
      4          9           0       -1.330444   -2.106241    1.111442
      5          6           0       -0.845495   -0.115464   -0.067738
      6          6           0       -1.376164    1.053071   -0.641806
      7          9           0       -0.539672    1.889293   -1.287177
      8          6           0       -2.728925    1.380799   -0.588343
      9          6           0        0.593012   -0.422376   -0.120108
     10          6           0        1.642652    0.412871    0.234551
     11          8           0        1.386119    1.648672    0.740698
     12          6           0        2.511618    2.470862    1.008843
     13          6           0        2.929801   -0.182183    0.033255
     14          6           0        2.832675   -1.458502   -0.465686
     15         16           0        1.201230   -1.951005   -0.688882
     16          1           0       -4.680176    0.747063    0.095930
     17          1           0       -3.806577   -1.387531    1.127751
     18          1           0       -3.067525    2.311529   -1.056685
     19          1           0        3.166625    2.030059    1.788926
     20          1           0        3.110091    2.657804    0.093393
     21          1           0        2.109083    3.428759    1.377899
     22          1           0        3.884690    0.304655    0.250234
     23          1           0        3.648921   -2.144570   -0.706831
 ---------------------------------------------------------------------

 The electronic state is 1-A.
 Alpha  occ. eigenvalues --  -88.21951 -24.40816 -24.40525 -18.91994 -10.10900
 Alpha  occ. eigenvalues --  -10.10855 -10.08002 -10.07669 -10.05060 -10.04803
 Alpha  occ. eigenvalues --  -10.04692 -10.04030 -10.03031 -10.02986 -10.02780
 Alpha  occ. eigenvalues --   -7.82338  -5.84327  -5.83854  -5.83455  -1.24618
 Alpha  occ. eigenvalues --   -1.24413  -1.10577  -0.93721  -0.91677  -0.83803
 Alpha  occ. eigenvalues --   -0.80568  -0.80266  -0.77980  -0.73922  -0.69062
 Alpha  occ. eigenvalues --   -0.68287  -0.63620  -0.62160  -0.60952  -0.59337
 Alpha  occ. eigenvalues --   -0.57583  -0.54540  -0.54337  -0.53237  -0.53127
 Alpha  occ. eigenvalues --   -0.52175  -0.50877  -0.49950  -0.49117  -0.47609
 Alpha  occ. eigenvalues --   -0.46288  -0.46260  -0.44652  -0.42737  -0.42405
 Alpha  occ. eigenvalues --   -0.41618  -0.40884  -0.39704  -0.38822  -0.34160
 Alpha  occ. eigenvalues --   -0.31386  -0.30607  -0.27248
 Alpha virt. eigenvalues --    0.02409   0.05799   0.06328   0.10321   0.12531
 Alpha virt. eigenvalues --    0.13281   0.13711   0.15600   0.16658   0.18201
 Alpha virt. eigenvalues --    0.18677   0.19153   0.19857   0.20141   0.20645

  Beta  occ. eigenvalues --  -88.21951 -24.40816 -24.40525 -18.91994 -10.10900
  Beta  occ. eigenvalues --  -10.10855 -10.08002 -10.07669 -10.05060 -10.04803
  Beta  occ. eigenvalues --  -10.04692 -10.04030 -10.03031 -10.02986 -10.02780
  Beta  occ. eigenvalues --   -7.82338  -5.84327  -5.83854  -5.83455  -1.24618
  Beta  occ. eigenvalues --   -1.24413  -1.10577  -0.93721  -0.91677  -0.83803
  Beta  occ. eigenvalues --   -0.80568  -0.80266  -0.77980  -0.73922  -0.69062
  Beta  occ. eigenvalues --   -0.68287  -0.63620  -0.62160  -0.60952  -0.59337
  Beta  occ. eigenvalues --   -0.57583  -0.54540  -0.54337  -0.53237  -0.53127
  Beta  occ. eigenvalues --   -0.52175  -0.50877  -0.49950  -0.49117  -0.47609
  Beta  occ. eigenvalues --   -0.46288  -0.46260  -0.44652  -0.42737  -0.42405
  Beta  occ. eigenvalues --   -0.41618  -0.40884  -0.39704  -0.38822  -0.34160
  Beta  occ. eigenvalues --   -0.31386  -0.30607  -0.27248
  Beta virt. eigenvalues --    0.02409   0.05799   0.06328   0.10321   0.12531
  Beta virt. eigenvalues --    0.13281   0.13711   0.15600   0.16658   0.18201
  Beta virt. eigenvalues --    0.18677   0.19153   0.19857   0.20141   0.20645

 Mulliken charges and spin densities:
               1          2
     1  C    0.039775  -0.000000
     2  C    0.007801   0.000000
     3  C    0.111130  -0.000000
     4  F   -0.119215  -0.000000
     5  C   -0.053885  -0.000000
     6  C    0.115894   0.000000
     7  F   -0.115356  -0.000000
     8  C    0.006681  -0.000000
     9  C   -0.201562   0.000000
    10  C    0.164811   0.000000
    11  O   -0.233573  -0.000000
    12  C    0.057628   0.000000
    13  C    0.013493  -0.000000
    14  C   -0.122846  -0.000000
    15  S    0.180900   0.000000
    16  H   -0.002779  -0.000000
    17  H   -0.001093   0.000000
    18  H   -0.001730   0.000000
    19  H    0.042115   0.000000
    20  H    0.043403  -0.000000
    21  H    0.051041  -0.000000
    22  H   -0.006270   0.000000
    23  H    0.023636  -0.000000
 Sum of Mulliken charges =  -0.00000   0.00000

 Dipole moment (field-independent basis, Debye):
    X=              0.8355    Y=              1.2760    Z=              0.3810  Tot=              1.5721
 Quadrupole moment (field-independent basis, Debye-Ang):
   XX=            -71.9657   YY=            -86.9920   ZZ=            -93.8680
   XY=              1.0359   XZ=              1.0501   YZ=              2.6891

 Normal termination of Gaussian 16 at Sat Jul 25 14:13:20 2020.
