 Gaussian 16, Revision A.03,
 Gaussian 16:  EM64L-G16RevA.03 25-Dec-2016

 ---------------------------------------------------------------
 #P uLC-wPBE/cc-pVDZ iop(3/107=0382600000, 3/108=0382600000) opt
 ---------------------------------------------------------------

 ------------
 H6 C10 S1 F2
 ------------
 Symbolic Z-matrix:
 Charge =  0 Multiplicity = 1

 SCF Done:  E(ULC-wPBE) =  -982.014353118     A.U. after   16 cycles
 SCF Done:  E(ULC-wPBE) =  -982.042384720     A.U. after   16 cycles
 SCF Done:  E(ULC-wPBE) =  -982.047090355     A.U. after   14 cycles
 SCF Done:  E(ULC-wPBE) =  -982.047010154     A.U. after   14 cycles
 SCF Done:  E(ULC-wPBE) =  -982.047478100     A.U. after   12 cycles
 SCF Done:  E(ULC-wPBE) =  -982.047494691     A.U. after   11 cycles
 SCF Done:  E(ULC-wPBE) =  -982.047495364     A.U. after   10 cycles
 SCF Done:  E(ULC-wPBE) =  -982.047498068     A.U. after   10 cycles
 SCF Done:  E(ULC-wPBE) =  -982.047498831     A.U. after    9 cycles
 SCF Done:  E(ULC-wPBE) =  -982.047501599     A.U. after   11 cycles
 SCF Done:  E(ULC-wPBE) =  -982.047680084     A.U. after    8 cycles
 SCF Done:  E(ULC-wPBE) =  -982.045227004     A.U. after   14 cycles
 SCF Done:  E(ULC-wPBE) =  -982.047483470     A.U. after   13 cycles
 SCF Done:  E(ULC-wPBE) =  -982.047728059     A.U. after    8 cycles
 SCF Done:  E(ULC-wPBE) =  -982.047804109     A.U. after   13 cycles
 SCF Done:  E(ULC-wPBE) =  -982.048055651     A.U. after   14 cycles
 SCF Done:  E(ULC-wPBE) =  -982.048080651     A.U. after   12 cycles
 SCF Done:  E(ULC-wPBE) =  -982.048083098     A.U. after   12 cycles
 SCF Done:  E(ULC-wPBE) =  -982.048083516     A.U. after    9 cycles
 SCF Done:  E(ULC-wPBE) =  -982.048083489     A.U. after    8 cycles
 Optimization completed.
    -- Stationary point found.

                         Standard orientation:
 ---------------------------------------------------------------------
 Center     Atomic      Atomic             Coordinates (Angstroms)
 Number     Number       Type             X           Y           Z
 ---------------------------------------------------------------------
      1          6           0       -3.378642   -0.135902   -0.032221
      2          6           0       -2.605845   -1.274890    0.142868
      3          6           0       -1.229207   -1.148743    0.178881
      4          9           0       -0.502090   -2.264954    0.343523
      5          6           0       -0.556601    0.068917    0.049699
      6          6           0       -1.387762    1.179050   -0.128177
      7          9           0       -0.828670    2.390923   -0.268725
      8          6           0       -2.768306    1.102670   -0.169953
      9          6           0        0.911184    0.189793    0.098045
     10          6           0        1.645678    1.263447    0.529757
     11          6           0        3.047761    1.068238    0.404018
     12          6           0        3.354768   -0.145939   -0.131407
     13         16           0        1.956266   -1.068014   -0.468256
     14          1           0       -4.466515   -0.214215   -0.063052
     15          1           0       -3.044733   -2.266263    0.254624
     16          1           0       -3.338906    2.020134   -0.314193
     17          1           0        1.193251    2.170128    0.925146
     18          1           0        3.794099    1.804385    0.701163
     19          1           0        4.341204   -0.559512   -0.333827
 ---------------------------------------------------------------------

 The electronic state is 1-A.
 Alpha  occ. eigenvalues --  -88.30955 -24.50362 -24.50318 -10.21233 -10.21192
 Alpha  occ. eigenvalues --  -10.15259 -10.14928 -10.13919 -10.13859 -10.12783
 Alpha  occ. eigenvalues --  -10.12780 -10.11584 -10.11486  -7.91693  -5.93276
 Alpha  occ. eigenvalues --   -5.92731  -5.92368  -1.35114  -1.35016  -1.04093
 Alpha  occ. eigenvalues --   -1.02088  -0.93349  -0.89970  -0.87637  -0.85698
 Alpha  occ. eigenvalues --   -0.77366  -0.76631  -0.70545  -0.69320  -0.67498
 Alpha  occ. eigenvalues --   -0.64609  -0.64504  -0.61462  -0.61148  -0.60678
 Alpha  occ. eigenvalues --   -0.58998  -0.56423  -0.53961  -0.52223  -0.51683
 Alpha  occ. eigenvalues --   -0.51187  -0.50431  -0.49101  -0.48666  -0.47147
 Alpha  occ. eigenvalues --   -0.44882  -0.39761  -0.35721  -0.35401  -0.31983
 Alpha virt. eigenvalues --    0.03013   0.07299   0.09617   0.14135   0.14742
 Alpha virt. eigenvalues --    0.15677   0.17207   0.19440   0.20367   0.21535
 Alpha virt. eigenvalues --    0.22405   0.23462   0.24282   0.27457   0.29206

  Beta  occ. eigenvalues --  -88.30955 -24.50362 -24.50318 -10.21233 -10.21192
  Beta  occ. eigenvalues --  -10.15259 -10.14928 -10.13919 -10.13859 -10.12783
  Beta  occ. eigenvalues --  -10.12780 -10.11584 -10.11486  -7.91693  -5.93276
  Beta  occ. eigenvalues --   -5.92731  -5.92368  -1.35114  -1.35016  -1.04093
  Beta  occ. eigenvalues --   -1.02088  -0.93349  -0.89970  -0.87637  -0.85698
  Beta  occ. eigenvalues --   -0.77366  -0.76631  -0.70545  -0.69320  -0.67498
  Beta  occ. eigenvalues --   -0.64609  -0.64504  -0.61462  -0.61148  -0.60678
  Beta  occ. eigenvalues --   -0.58998  -0.56423  -0.53961  -0.52223  -0.51683
  Beta  occ. eigenvalues --   -0.51187  -0.50431  -0.49101  -0.48666  -0.47147
  Beta  occ. eigenvalues --   -0.44882  -0.39761  -0.35721  -0.35401  -0.31983
  Beta virt. eigenvalues --    0.03013   0.07299   0.09617   0.14135   0.14742
  Beta virt. eigenvalues --    0.15677   0.17207   0.19440   0.20367   0.21535
  Beta virt. eigenvalues --    0.22405   0.23462   0.24282   0.27457   0.29206

 Mulliken charges and spin densities:
               1          2
     1  C    0.026703   0.000000
     2  C   -0.000538  -0.000000
     3  C    0.106899   0.000000
     4  F   -0.121947   0.000000
     5  C   -0.041870  -0.000000
     6  C    0.095316   0.000000
     7  F   -0.124788  -0.000000
     8  C   -0.001522  -0.000000
     9  C   -0.143437   0.000000
    10  C    0.006752  -0.000000
    11  C    0.043075   0.000000
    12  C   -0.143143  -0.000000
    13  S    0.174861  -0.000000
    14  H    0.019164  -0.000000
    15  H    0.022398  -0.000000
    16  H    0.022390   0.000000
    17  H    0.010995  -0.000000
    18  H    0.007660  -0.000000
    19  H    0.041032  -0.000000
 Sum of Mulliken charges =  -0.00000  -0.00000

 Dipole moment (field-independent basis, Debye):
    X=             -1.0987    Y=              0.3478    Z=              0.1509  Tot=              1.1623
 Quadrupole moment (field-independent basis, Debye-Ang):
   XX=            -63.0313   YY=            -78.4705   ZZ=            -82.5072
   XY=              1.2704   XZ=              0.2292   YZ=              1.9645

 Normal termination of Gaussian 16 at Sat Jul 25 14:52:46 2020.
