 Gaussian 16, Revision A.03,
 Gaussian 16:  EM64L-G16RevA.03 25-Dec-2016

 ---------------------------------------------------------------
 #P uLC-wPBE/cc-pVDZ iop(3/107=0343200000, 3/108=0343200000) opt
 ---------------------------------------------------------------

 ----------------
 H30 C63 S7 N7 F7
 ----------------
 Symbolic Z-matrix:
 Charge =  0 Multiplicity = 1

 SCF Done:  E(ULC-wPBE) =  -6284.83284875     A.U. after   16 cycles
 SCF Done:  E(ULC-wPBE) =  -6284.92623463     A.U. after   13 cycles
 SCF Done:  E(ULC-wPBE) =  -6285.00798663     A.U. after   14 cycles
 SCF Done:  E(ULC-wPBE) =  -6285.02708831     A.U. after   14 cycles
 SCF Done:  E(ULC-wPBE) =  -6285.03231223     A.U. after   15 cycles
 SCF Done:  E(ULC-wPBE) =  -6285.03392802     A.U. after   15 cycles
 SCF Done:  E(ULC-wPBE) =  -6285.03466585     A.U. after   15 cycles
 SCF Done:  E(ULC-wPBE) =  -6285.03507306     A.U. after   12 cycles
 SCF Done:  E(ULC-wPBE) =  -6285.03516177     A.U. after   12 cycles
 SCF Done:  E(ULC-wPBE) =  -6285.03521676     A.U. after   11 cycles
 SCF Done:  E(ULC-wPBE) =  -6285.03524680     A.U. after   11 cycles
 SCF Done:  E(ULC-wPBE) =  -6285.03524990     A.U. after   11 cycles
 SCF Done:  E(ULC-wPBE) =  -6285.03525141     A.U. after   10 cycles
 SCF Done:  E(ULC-wPBE) =  -6285.03525171     A.U. after    8 cycles
 SCF Done:  E(ULC-wPBE) =  -6285.03525227     A.U. after   10 cycles
 SCF Done:  E(ULC-wPBE) =  -6285.03525213     A.U. after    7 cycles
 SCF Done:  E(ULC-wPBE) =  -6285.03525215     A.U. after    6 cycles
 SCF Done:  E(ULC-wPBE) =  -6285.03525222     A.U. after    6 cycles
 SCF Done:  E(ULC-wPBE) =  -6285.03525230     A.U. after    6 cycles
 SCF Done:  E(ULC-wPBE) =  -6285.03525223     A.U. after    6 cycles
 Optimization completed on the basis of negligible forces.
    -- Stationary point found.

                         Standard orientation:
 ---------------------------------------------------------------------
 Center     Atomic      Atomic             Coordinates (Angstroms)
 Number     Number       Type             X           Y           Z
 ---------------------------------------------------------------------
      1          6           0      -26.759186    2.680831    0.033029
      2          6           0      -25.789242    2.301274   -0.890105
      3          7           0      -24.553299    1.949662   -0.549718
      4          6           0      -24.199445    1.953675    0.741326
      5          6           0      -25.125263    2.324876    1.720793
      6          9           0      -24.774053    2.330697    3.019277
      7          6           0      -26.413134    2.691719    1.378137
      8          6           0      -22.816357    1.554795    1.036626
      9          6           0      -22.141235    1.445119    2.227302
     10          6           0      -20.797407    1.021733    2.057512
     11          6           0      -20.464635    0.814270    0.742184
     12         16           0      -21.800341    1.144455   -0.300947
     13          6           0      -19.169010    0.373050    0.204020
     14          6           0      -17.969611    0.703993    0.848649
     15          7           0      -16.772164    0.321965    0.428111
     16          6           0      -16.660336   -0.414758   -0.684489
     17          6           0      -17.809983   -0.771504   -1.393647
     18          9           0      -17.714724   -1.508450   -2.514509
     19          6           0      -19.063623   -0.390143   -0.959896
     20          6           0      -15.299893   -0.795556   -1.082445
     21          6           0      -14.844760   -1.539293   -2.143776
     22          6           0      -13.432033   -1.666881   -2.155038
     23          6           0      -12.827206   -1.021945   -1.104884
     24         16           0      -13.991960   -0.244296   -0.095042
     25          6           0      -11.388938   -0.951946   -0.806457
     26          6           0      -10.903873   -0.836965    0.503837
     27          7           0       -9.618445   -0.776953    0.821343
     28          6           0       -8.694780   -0.834849   -0.146210
     29          6           0       -9.099485   -0.956314   -1.477256
     30          9           0       -8.174674   -1.010319   -2.453722
     31          6           0      -10.434280   -1.008920   -1.822449
     32          6           0       -7.289791   -0.761292    0.286075
     33          6           0       -6.882575   -0.638696    1.591125
     34          6           0       -5.474108   -0.591907    1.729675
     35          6           0       -4.814816   -0.677443    0.528194
     36         16           0       -5.930200   -0.824543   -0.781174
     37          6           0       -3.363520   -0.657247    0.293901
     38          6           0       -2.804525   -0.148464   -0.886777
     39          7           0       -1.504015   -0.104876   -1.138620
     40          6           0       -0.637670   -0.559768   -0.224770
     41          6           0       -1.117584   -1.075701    0.981047
     42          9           0       -0.250820   -1.538084    1.900983
     43          6           0       -2.469132   -1.137672    1.251166
     44          6           0        0.788708   -0.477463   -0.578081
     45          6           0        1.269566    0.024918   -1.761477
     46          6           0        2.682711   -0.010530   -1.844656
     47          6           0        3.271827   -0.541844   -0.723851
     48         16           0        2.084325   -0.994062    0.444690
     49          6           0        4.706319   -0.735009   -0.465899
     50          6           0        5.186203   -1.772259    0.345912
     51          7           0        6.468732   -1.987722    0.601621
     52          6           0        7.394985   -1.187536    0.059085
     53          6           0        6.995528   -0.135284   -0.767875
     54          9           0        7.922609    0.674660   -1.312083
     55          6           0        5.663507    0.107242   -1.032960
     56          6           0        8.796435   -1.490695    0.390594
     57          6           0        9.198968   -2.519644    1.204801
     58          6           0       10.605528   -2.589462    1.356891
     59          6           0       11.267825   -1.611418    0.656915
     60         16           0       10.158874   -0.603420   -0.200164
     61          6           0       12.717628   -1.378413    0.583182
     62          6           0       13.624520   -2.443376    0.679772
     63          7           0       14.941985   -2.307104    0.641016
     64          6           0       15.477318   -1.088863    0.486939
     65          6           0       14.638057    0.020673    0.367587
     66          9           0       15.170479    1.246423    0.211600
     67          6           0       13.264617   -0.105598    0.418268
     68          6           0       16.946879   -1.019883    0.452716
     69          6           0       17.779760   -2.105459    0.561804
     70          6           0       19.151611   -1.759815    0.498544
     71          6           0       19.357331   -0.411466    0.339957
     72         16           0       17.857385    0.440351    0.276269
     73          6           0       20.640911    0.298113    0.232395
     74          6           0       20.782425    1.478200   -0.507903
     75          7           0       21.922454    2.143765   -0.633976
     76          6           0       23.031423    1.687427   -0.039355
     77          6           0       22.972173    0.509813    0.712614
     78          9           0       24.074058    0.036297    1.322596
     79          6           0       21.790179   -0.185651    0.860817
     80          6           0       24.252559    2.480399   -0.226964
     81          6           0       25.530052    2.290250    0.241190
     82          6           0       26.425670    3.310997   -0.182320
     83          6           0       25.809461    4.250073   -0.960089
     84         16           0       24.145691    3.914804   -1.190011
     85          1           0      -27.762944    2.961666   -0.293243
     86          1           0      -26.016505    2.277952   -1.961546
     87          1           0      -27.115031    2.977044    2.165266
     88          1           0      -22.595209    1.653562    3.194270
     89          1           0      -20.108339    0.849641    2.886148
     90          1           0      -17.985718    1.326510    1.749695
     91          1           0      -19.940938   -0.706545   -1.529897
     92          1           0      -15.502036   -1.985914   -2.887521
     93          1           0      -12.883549   -2.241725   -2.903542
     94          1           0      -11.606168   -0.801864    1.344944
     95          1           0      -10.709025   -1.075683   -2.877395
     96          1           0       -7.601236   -0.579658    2.408365
     97          1           0       -4.962174   -0.471840    2.686140
     98          1           0       -3.456466    0.257160   -1.669375
     99          1           0       -2.804065   -1.574452    2.194503
    100          1           0        0.599229    0.397453   -2.535886
    101          1           0        3.247719    0.322002   -2.717290
    102          1           0        4.482607   -2.475544    0.806769
    103          1           0        5.392094    0.957714   -1.662149
    104          1           0        8.478122   -3.188913    1.674243
    105          1           0       11.113015   -3.322401    1.986244
    106          1           0       13.251470   -3.468494    0.780876
    107          1           0       12.645075    0.791674    0.343235
    108          1           0       17.386410   -3.115403    0.676533
    109          1           0       19.963793   -2.487650    0.541957
    110          1           0       19.920871    1.901109   -1.037741
    111          1           0       21.778947   -1.086078    1.479064
    112          1           0       25.818193    1.447961    0.867634
    113          1           0       27.483839    3.342561    0.082320
    114          1           0       26.255563    5.134304   -1.415998
 ---------------------------------------------------------------------

 Alpha  occ. eigenvalues --   -0.70531  -0.70325  -0.70178  -0.70126  -0.69912
 Alpha  occ. eigenvalues --   -0.69525  -0.69397  -0.69201  -0.68982  -0.68748
 Alpha  occ. eigenvalues --   -0.68353  -0.68040  -0.67781  -0.66828  -0.66641
 Alpha  occ. eigenvalues --   -0.65932  -0.65681  -0.65442  -0.65170  -0.65037
 Alpha  occ. eigenvalues --   -0.64697  -0.64462  -0.64236  -0.63907  -0.63885
 Alpha  occ. eigenvalues --   -0.63668  -0.63590  -0.63371  -0.63124  -0.62889
 Alpha  occ. eigenvalues --   -0.62765  -0.62453  -0.62299  -0.62113  -0.62021
 Alpha  occ. eigenvalues --   -0.60873  -0.60507  -0.60448  -0.60389  -0.60342
 Alpha  occ. eigenvalues --   -0.60294  -0.60140  -0.59979  -0.59578  -0.59411
 Alpha  occ. eigenvalues --   -0.58747  -0.58094  -0.57424  -0.56887  -0.55454
 Alpha  occ. eigenvalues --   -0.54723  -0.54658  -0.54498  -0.54314  -0.54279
 Alpha  occ. eigenvalues --   -0.54113  -0.54081  -0.53908  -0.53875  -0.53779
 Alpha  occ. eigenvalues --   -0.53657  -0.53549  -0.53494  -0.53423  -0.53249
 Alpha  occ. eigenvalues --   -0.53171  -0.53164  -0.53012  -0.52915  -0.52805
 Alpha  occ. eigenvalues --   -0.52626  -0.52443  -0.52376  -0.52091  -0.51865
 Alpha  occ. eigenvalues --   -0.51657  -0.51548  -0.51428  -0.51285  -0.51031
 Alpha  occ. eigenvalues --   -0.50722  -0.50460  -0.50304  -0.50146  -0.50064
 Alpha  occ. eigenvalues --   -0.50005  -0.49882  -0.49789  -0.49610  -0.49492
 Alpha  occ. eigenvalues --   -0.49361  -0.48987  -0.48639  -0.48383  -0.48290
 Alpha  occ. eigenvalues --   -0.48251  -0.47917  -0.47893  -0.47169  -0.45871
 Alpha  occ. eigenvalues --   -0.45444  -0.45117  -0.45048  -0.45008  -0.44595
 Alpha  occ. eigenvalues --   -0.44228  -0.44153  -0.43762  -0.43043  -0.42196
 Alpha  occ. eigenvalues --   -0.41360  -0.40723  -0.40479  -0.38952  -0.38822
 Alpha  occ. eigenvalues --   -0.38682  -0.38487  -0.38271  -0.38122  -0.38049
 Alpha  occ. eigenvalues --   -0.37893  -0.37804  -0.37777  -0.37676  -0.37553
 Alpha  occ. eigenvalues --   -0.37383  -0.36971  -0.36148  -0.36123  -0.36083
 Alpha  occ. eigenvalues --   -0.36002  -0.35993  -0.35700  -0.34649  -0.34507
 Alpha  occ. eigenvalues --   -0.33625  -0.32427  -0.31193  -0.30059  -0.29115
 Alpha  occ. eigenvalues --   -0.28488
 Alpha virt. eigenvalues --   -0.02687  -0.02006  -0.01038   0.00087   0.01245
 Alpha virt. eigenvalues --    0.02364   0.02944   0.04333   0.04424   0.04453
 Alpha virt. eigenvalues --    0.04525   0.04702   0.04971   0.05421   0.06367

  Beta  occ. eigenvalues --  -88.30146 -88.30107 -88.30002 -88.29974 -88.29829
  Beta  occ. eigenvalues --  -88.29712 -88.28329 -24.49771 -24.49626 -24.49624
  Beta  occ. eigenvalues --  -24.49605 -24.49546 -24.49292 -24.48765 -14.20849
  Beta  occ. eigenvalues --  -14.20814 -14.20523 -14.20522 -14.20452 -14.20273
  Beta  occ. eigenvalues --  -14.19850 -10.19791 -10.19688 -10.19491 -10.19482
  Beta  occ. eigenvalues --  -10.19417 -10.19200 -10.18794 -10.16183 -10.15929
  Beta  occ. eigenvalues --  -10.15828 -10.15815 -10.15751 -10.15542 -10.15040
  Beta  occ. eigenvalues --  -10.14269 -10.14205 -10.14031 -10.14015 -10.14005
  Beta  occ. eigenvalues --  -10.13970 -10.13922 -10.13883 -10.13883 -10.13809
  Beta  occ. eigenvalues --  -10.13796 -10.13753 -10.13658 -10.13655 -10.13564
  Beta  occ. eigenvalues --  -10.13540 -10.13528 -10.13510 -10.13491 -10.13477
  Beta  occ. eigenvalues --  -10.13437 -10.13374 -10.13290 -10.13232 -10.13148
  Beta  occ. eigenvalues --  -10.12971 -10.12869 -10.12862 -10.12858 -10.12804
  Beta  occ. eigenvalues --  -10.12615 -10.12336 -10.12206 -10.12175 -10.11398
  Beta  occ. eigenvalues --  -10.10820 -10.10751 -10.10679 -10.10656 -10.10653
  Beta  occ. eigenvalues --  -10.10613 -10.10457 -10.10243 -10.10211 -10.10201
  Beta  occ. eigenvalues --  -10.10107 -10.09877 -10.09311 -10.09064  -7.90759
  Beta  occ. eigenvalues --   -7.90720  -7.90620  -7.90572  -7.90423  -7.90325
  Beta  occ. eigenvalues --   -7.88939  -5.92480  -5.92441  -5.92340  -5.92292
  Beta  occ. eigenvalues --   -5.92144  -5.92046  -5.91951  -5.91912  -5.91813
  Beta  occ. eigenvalues --   -5.91768  -5.91618  -5.91567  -5.91528  -5.91517
  Beta  occ. eigenvalues --   -5.91426  -5.91384  -5.91236  -5.91133  -5.90648
  Beta  occ. eigenvalues --   -5.90122  -5.89772  -1.34194  -1.34060  -1.34041
  Beta  occ. eigenvalues --   -1.34026  -1.33963  -1.33726  -1.33182  -1.09221
  Beta  occ. eigenvalues --   -1.09139  -1.08961  -1.08900  -1.08846  -1.08657
  Beta  occ. eigenvalues --   -1.08257  -1.03069  -1.02934  -1.02744  -1.02525
  Beta  occ. eigenvalues --   -1.02356  -1.02192  -1.00645  -0.96576  -0.96284
  Beta  occ. eigenvalues --   -0.95909  -0.95545  -0.95264  -0.94911  -0.94901
  Beta  occ. eigenvalues --   -0.92725  -0.92538  -0.92304  -0.91984  -0.91647
  Beta  occ. eigenvalues --   -0.91280  -0.90944  -0.88491  -0.87797  -0.87469
  Beta  occ. eigenvalues --   -0.87387  -0.87138  -0.87100  -0.86843  -0.86820
  Beta  occ. eigenvalues --   -0.86341  -0.85526  -0.85320  -0.84311  -0.83294
  Beta  occ. eigenvalues --   -0.82282  -0.80111  -0.79209  -0.78443  -0.78406
  Beta  occ. eigenvalues --   -0.77808  -0.77695  -0.77499  -0.77256  -0.76990
  Beta  occ. eigenvalues --   -0.76808  -0.76681  -0.75951  -0.75339  -0.74954
  Beta  occ. eigenvalues --   -0.70531  -0.70325  -0.70178  -0.70126  -0.69912
  Beta  occ. eigenvalues --   -0.69525  -0.69397  -0.69201  -0.68982  -0.68748
  Beta  occ. eigenvalues --   -0.68353  -0.68040  -0.67781  -0.66828  -0.66641
  Beta  occ. eigenvalues --   -0.65932  -0.65681  -0.65442  -0.65170  -0.65037
  Beta  occ. eigenvalues --   -0.64697  -0.64462  -0.64236  -0.63907  -0.63885
  Beta  occ. eigenvalues --   -0.63668  -0.63590  -0.63371  -0.63124  -0.62889
  Beta  occ. eigenvalues --   -0.62765  -0.62453  -0.62299  -0.62113  -0.62021
  Beta  occ. eigenvalues --   -0.60873  -0.60507  -0.60448  -0.60389  -0.60342
  Beta  occ. eigenvalues --   -0.60294  -0.60140  -0.59979  -0.59578  -0.59411
  Beta  occ. eigenvalues --   -0.58747  -0.58094  -0.57424  -0.56887  -0.55454
  Beta  occ. eigenvalues --   -0.54723  -0.54658  -0.54498  -0.54314  -0.54279
  Beta  occ. eigenvalues --   -0.54113  -0.54081  -0.53908  -0.53875  -0.53779
  Beta  occ. eigenvalues --   -0.53657  -0.53549  -0.53494  -0.53423  -0.53249
  Beta  occ. eigenvalues --   -0.53171  -0.53164  -0.53012  -0.52915  -0.52805
  Beta  occ. eigenvalues --   -0.52626  -0.52443  -0.52376  -0.52091  -0.51865
  Beta  occ. eigenvalues --   -0.51657  -0.51548  -0.51428  -0.51285  -0.51031
  Beta  occ. eigenvalues --   -0.50722  -0.50460  -0.50304  -0.50146  -0.50064
  Beta  occ. eigenvalues --   -0.50005  -0.49882  -0.49789  -0.49610  -0.49492
  Beta  occ. eigenvalues --   -0.49361  -0.48987  -0.48639  -0.48383  -0.48290
  Beta  occ. eigenvalues --   -0.48251  -0.47917  -0.47893  -0.47169  -0.45871
  Beta  occ. eigenvalues --   -0.45444  -0.45117  -0.45048  -0.45008  -0.44595
  Beta  occ. eigenvalues --   -0.44228  -0.44153  -0.43762  -0.43043  -0.42196
  Beta  occ. eigenvalues --   -0.41360  -0.40723  -0.40479  -0.38952  -0.38822
  Beta  occ. eigenvalues --   -0.38682  -0.38487  -0.38271  -0.38122  -0.38049
  Beta  occ. eigenvalues --   -0.37893  -0.37804  -0.37777  -0.37676  -0.37553
  Beta  occ. eigenvalues --   -0.37383  -0.36971  -0.36148  -0.36123  -0.36083
  Beta  occ. eigenvalues --   -0.36002  -0.35993  -0.35700  -0.34649  -0.34507
  Beta  occ. eigenvalues --   -0.33625  -0.32427  -0.31193  -0.30059  -0.29115
  Beta  occ. eigenvalues --   -0.28488
  Beta virt. eigenvalues --   -0.02687  -0.02006  -0.01038   0.00087   0.01245
  Beta virt. eigenvalues --    0.02364   0.02944   0.04333   0.04424   0.04453
  Beta virt. eigenvalues --    0.04525   0.04702   0.04971   0.05421   0.06367

 Mulliken charges and spin densities:
               1          2
     1  C   -0.041025   0.000000
     2  C    0.087045   0.000000
     3  N   -0.210521  -0.000000
     4  C    0.106954   0.000000
     5  C    0.097327   0.000000
     6  F   -0.124332  -0.000000
     7  C    0.060985  -0.000000
     8  C   -0.153293  -0.000000
     9  C    0.003524   0.000000
    10  C    0.031700   0.000000
    11  C   -0.164818  -0.000000
    12  S    0.208922   0.000000
    13  C   -0.020747  -0.000000
    14  C    0.092887   0.000000
    15  N   -0.208057  -0.000000
    16  C    0.111290   0.000000
    17  C    0.106549  -0.000000
    18  F   -0.122857  -0.000000
    19  C    0.068210   0.000000
    20  C   -0.156295  -0.000000
    21  C    0.000495  -0.000000
    22  C    0.031213   0.000000
    23  C   -0.166635  -0.000000
    24  S    0.214319   0.000000
    25  C   -0.016794   0.000000
    26  C    0.088575  -0.000000
    27  N   -0.192746   0.000000
    28  C    0.072321   0.000000
    29  C    0.109879  -0.000000
    30  F   -0.122533  -0.000000
    31  C    0.063696  -0.000000
    32  C   -0.169839   0.000000
    33  C    0.072218   0.000000
    34  C    0.028826  -0.000000
    35  C   -0.166426  -0.000000
    36  S    0.178216   0.000000
    37  C   -0.012110   0.000000
    38  C    0.087256   0.000000
    39  N   -0.192544  -0.000000
    40  C    0.072191   0.000000
    41  C    0.110027   0.000000
    42  F   -0.122241   0.000000
    43  C    0.063621   0.000000
    44  C   -0.169890  -0.000000
    45  C    0.072200  -0.000000
    46  C    0.028808   0.000000
    47  C   -0.166299   0.000000
    48  S    0.178331   0.000000
    49  C   -0.012228  -0.000000
    50  C    0.087193   0.000000
    51  N   -0.192452  -0.000000
    52  C    0.072356   0.000000
    53  C    0.109938  -0.000000
    54  F   -0.122595  -0.000000
    55  C    0.063637  -0.000000
    56  C   -0.169836  -0.000000
    57  C    0.071327  -0.000000
    58  C    0.030009   0.000000
    59  C   -0.163714   0.000000
    60  S    0.173917   0.000000
    61  C   -0.017155  -0.000000
    62  C    0.089205  -0.000000
    63  N   -0.192883   0.000000
    64  C    0.071790  -0.000000
    65  C    0.108075   0.000000
    66  F   -0.121202  -0.000000
    67  C    0.065961  -0.000000
    68  C   -0.170535   0.000000
    69  C    0.071511  -0.000000
    70  C    0.028189  -0.000000
    71  C   -0.165681   0.000000
    72  S    0.179082   0.000000
    73  C   -0.013373  -0.000000
    74  C    0.087908  -0.000000
    75  N   -0.206714   0.000000
    76  C    0.119221   0.000000
    77  C    0.108066  -0.000000
    78  F   -0.124840   0.000000
    79  C    0.062050   0.000000
    80  C   -0.161429   0.000000
    81  C   -0.030454  -0.000000
    82  C    0.057910   0.000000
    83  C   -0.142095  -0.000000
    84  S    0.199304   0.000000
    85  H    0.016206   0.000000
    86  H    0.023403   0.000000
    87  H    0.027881  -0.000000
    88  H    0.006773   0.000000
    89  H    0.002906   0.000000
    90  H    0.017989   0.000000
    91  H    0.025278  -0.000000
    92  H    0.006040   0.000000
    93  H    0.000020   0.000000
    94  H    0.023627   0.000000
    95  H    0.016734   0.000000
    96  H    0.008303  -0.000000
    97  H    0.001755   0.000000
    98  H    0.022840  -0.000000
    99  H    0.017118  -0.000000
   100  H    0.008188  -0.000000
   101  H    0.001796  -0.000000
   102  H    0.022777   0.000000
   103  H    0.017042   0.000000
   104  H    0.008237   0.000000
   105  H    0.003980   0.000000
   106  H    0.015374  -0.000000
   107  H    0.024218   0.000000
   108  H    0.006507  -0.000000
   109  H    0.000570  -0.000000
   110  H    0.023508   0.000000
   111  H    0.014909  -0.000000
   112  H    0.004623   0.000000
   113  H    0.001073   0.000000
   114  H    0.033276   0.000000
 Sum of Mulliken charges =  -0.00000   0.00000

 Dipole moment (field-independent basis, Debye):
    X=            -13.3898    Y=             -0.5870    Z=              0.7116  Tot=             13.4215
 Quadrupole moment (field-independent basis, Debye-Ang):
   XX=           -322.6354   YY=           -511.9125   ZZ=           -502.9626
   XY=            -47.6662   XZ=              6.8799   YZ=             -2.4379

 Normal termination of Gaussian 16 at Sat Jul 25 20:15:05 2020.
