 Gaussian 16, Revision A.03,
 Gaussian 16:  EM64L-G16RevA.03 25-Dec-2016

 ---------------------------------------------------------------
 #P uLC-wPBE/cc-pVDZ iop(3/107=0440800000, 3/108=0440800000) opt
 ---------------------------------------------------------------

 --------------
 H5 C9 S1 N1 F2
 --------------
 Symbolic Z-matrix:
 Charge =  0 Multiplicity = 1

 SCF Done:  E(ULC-wPBE) =  -998.063479155     A.U. after   16 cycles
 SCF Done:  E(ULC-wPBE) =  -998.084185771     A.U. after   15 cycles
 SCF Done:  E(ULC-wPBE) =  -998.090226284     A.U. after   15 cycles
 SCF Done:  E(ULC-wPBE) =  -998.091544916     A.U. after   12 cycles
 SCF Done:  E(ULC-wPBE) =  -998.091687467     A.U. after   13 cycles
 SCF Done:  E(ULC-wPBE) =  -998.091716628     A.U. after   12 cycles
 SCF Done:  E(ULC-wPBE) =  -998.091720595     A.U. after   11 cycles
 SCF Done:  E(ULC-wPBE) =  -998.091726418     A.U. after   11 cycles
 SCF Done:  E(ULC-wPBE) =  -998.091744393     A.U. after   15 cycles
 SCF Done:  E(ULC-wPBE) =  -998.091814333     A.U. after   12 cycles
 SCF Done:  E(ULC-wPBE) =  -998.091071959     A.U. after   16 cycles
 SCF Done:  E(ULC-wPBE) =  -998.089424937     A.U. after   16 cycles
 SCF Done:  E(ULC-wPBE) =  -998.091847831     A.U. after   11 cycles
 SCF Done:  E(ULC-wPBE) =  -998.092110751     A.U. after   14 cycles
 SCF Done:  E(ULC-wPBE) =  -998.092520005     A.U. after   14 cycles
 SCF Done:  E(ULC-wPBE) =  -998.092603646     A.U. after   13 cycles
 SCF Done:  E(ULC-wPBE) =  -998.092630938     A.U. after   12 cycles
 SCF Done:  E(ULC-wPBE) =  -998.092633876     A.U. after   10 cycles
 SCF Done:  E(ULC-wPBE) =  -998.092634371     A.U. after   10 cycles
 SCF Done:  E(ULC-wPBE) =  -998.092634439     A.U. after    9 cycles
 Optimization completed.
    -- Stationary point found.

                         Standard orientation:
 ---------------------------------------------------------------------
 Center     Atomic      Atomic             Coordinates (Angstroms)
 Number     Number       Type             X           Y           Z
 ---------------------------------------------------------------------
      1          6           0       -3.438790   -0.525710   -0.133969
      2          6           0       -2.549647   -1.555781   -0.400797
      3          7           0       -1.234042   -1.409111   -0.363738
      4          6           0       -0.717707   -0.220613   -0.054112
      5          6           0       -1.550515    0.847688    0.268700
      6          9           0       -1.031602    2.011976    0.659537
      7          6           0       -2.920806    0.707935    0.218510
      8          6           0        0.747078   -0.134064   -0.021771
      9          6           0        1.597328    0.899283   -0.283126
     10          9           0        1.206858    2.115195   -0.657895
     11          6           0        2.973330    0.577327   -0.171905
     12          6           0        3.139183   -0.726062    0.168597
     13         16           0        1.657095   -1.553624    0.337191
     14          1           0       -4.513509   -0.689590   -0.187201
     15          1           0       -2.913564   -2.552205   -0.658441
     16          1           0       -3.551696    1.559199    0.469156
     17          1           0        3.772161    1.291604   -0.350221
     18          1           0        4.077353   -1.251794    0.322272
 ---------------------------------------------------------------------

 The electronic state is 1-A.
 Alpha  occ. eigenvalues --  -88.34776 -24.53177 -24.52506 -14.25083 -10.24242
 Alpha  occ. eigenvalues --  -10.23340 -10.20826 -10.18750 -10.18281 -10.17983
 Alpha  occ. eigenvalues --  -10.17641 -10.16807 -10.15519  -7.95606  -5.96963
 Alpha  occ. eigenvalues --   -5.96415  -5.95994  -1.38331  -1.37262  -1.13551
 Alpha  occ. eigenvalues --   -1.07157  -0.98799  -0.95918  -0.90429  -0.89232
 Alpha  occ. eigenvalues --   -0.81116  -0.79903  -0.73406  -0.72597  -0.70672
 Alpha  occ. eigenvalues --   -0.67537  -0.66543  -0.63061  -0.62727  -0.61254
 Alpha  occ. eigenvalues --   -0.59731  -0.58422  -0.56912  -0.55141  -0.55051
 Alpha  occ. eigenvalues --   -0.53908  -0.51535  -0.50711  -0.49403  -0.47304
 Alpha  occ. eigenvalues --   -0.42329  -0.39627  -0.39195  -0.35891  -0.33100
 Alpha virt. eigenvalues --    0.02551   0.06256   0.09522   0.13884   0.15633
 Alpha virt. eigenvalues --    0.17198   0.17582   0.20028   0.20829   0.22683
 Alpha virt. eigenvalues --    0.23338   0.25853   0.27040   0.29555   0.33647

  Beta  occ. eigenvalues --  -88.34776 -24.53177 -24.52506 -14.25083 -10.24242
  Beta  occ. eigenvalues --  -10.23340 -10.20826 -10.18750 -10.18281 -10.17983
  Beta  occ. eigenvalues --  -10.17641 -10.16807 -10.15519  -7.95606  -5.96963
  Beta  occ. eigenvalues --   -5.96415  -5.95994  -1.38331  -1.37262  -1.13551
  Beta  occ. eigenvalues --   -1.07157  -0.98799  -0.95918  -0.90429  -0.89232
  Beta  occ. eigenvalues --   -0.81116  -0.79903  -0.73406  -0.72597  -0.70672
  Beta  occ. eigenvalues --   -0.67537  -0.66543  -0.63061  -0.62727  -0.61254
  Beta  occ. eigenvalues --   -0.59731  -0.58422  -0.56912  -0.55141  -0.55051
  Beta  occ. eigenvalues --   -0.53908  -0.51535  -0.50711  -0.49403  -0.47304
  Beta  occ. eigenvalues --   -0.42329  -0.39627  -0.39195  -0.35891  -0.33100
  Beta virt. eigenvalues --    0.02551   0.06256   0.09522   0.13884   0.15633
  Beta virt. eigenvalues --    0.17198   0.17582   0.20028   0.20829   0.22683
  Beta virt. eigenvalues --    0.23338   0.25853   0.27040   0.29555   0.33647

 Mulliken charges and spin densities:
               1          2
     1  C   -0.058661  -0.000000
     2  C    0.079409  -0.000000
     3  N   -0.206408  -0.000000
     4  C    0.077049   0.000000
     5  C    0.106646  -0.000000
     6  F   -0.117739  -0.000000
     7  C    0.042981   0.000000
     8  C   -0.192115   0.000000
     9  C    0.109434  -0.000000
    10  F   -0.118915  -0.000000
    11  C    0.026949  -0.000000
    12  C   -0.143193   0.000000
    13  S    0.213474  -0.000000
    14  H    0.026733  -0.000000
    15  H    0.032324   0.000000
    16  H    0.039109   0.000000
    17  H    0.029191   0.000000
    18  H    0.053730  -0.000000
 Sum of Mulliken charges =  -0.00000   0.00000

 Dipole moment (field-independent basis, Debye):
    X=             -0.9998    Y=             -0.3284    Z=              0.2818  Tot=              1.0895
 Quadrupole moment (field-independent basis, Debye-Ang):
   XX=            -56.9897   YY=            -80.1910   ZZ=            -81.4988
   XY=             -0.6796   XZ=              0.4533   YZ=             -0.3346

 Normal termination of Gaussian 16 at Sun Jul 26 12:41:03 2020.
