 Gaussian 16, Revision A.03,
 Gaussian 16:  EM64L-G16RevA.03 25-Dec-2016

 ---------------------------------------------------------------
 #P uLC-wPBE/cc-pVDZ iop(3/107=0071800000, 3/108=0071800000) opt
 ---------------------------------------------------------------

 -----------------
 H12 C35 S10 N5 F5
 -----------------
 Symbolic Z-matrix:
 Charge =  0 Multiplicity = 1

 SCF Done:  E(ULC-wPBE) =  -6092.37637125     A.U. after   17 cycles
 SCF Done:  E(ULC-wPBE) =  -6092.44829840     A.U. after   15 cycles
 SCF Done:  E(ULC-wPBE) =  -6092.50022511     A.U. after   15 cycles
 SCF Done:  E(ULC-wPBE) =  -6092.51179933     A.U. after   13 cycles
 SCF Done:  E(ULC-wPBE) =  -6092.51373907     A.U. after   15 cycles
 SCF Done:  E(ULC-wPBE) =  -6092.51379739     A.U. after   14 cycles
 SCF Done:  E(ULC-wPBE) =  -6092.51419525     A.U. after   12 cycles
 SCF Done:  E(ULC-wPBE) =  -6092.51422567     A.U. after   11 cycles
 SCF Done:  E(ULC-wPBE) =  -6092.51423200     A.U. after   11 cycles
 SCF Done:  E(ULC-wPBE) =  -6092.51423333     A.U. after   10 cycles
 SCF Done:  E(ULC-wPBE) =  -6092.51426084     A.U. after   10 cycles
 SCF Done:  E(ULC-wPBE) =  -6092.51426098     A.U. after    8 cycles
 SCF Done:  E(ULC-wPBE) =  -6092.51426105     A.U. after    6 cycles
 SCF Done:  E(ULC-wPBE) =  -6092.51426103     A.U. after    6 cycles
 SCF Done:  E(ULC-wPBE) =  -6092.51426116     A.U. after    6 cycles
 SCF Done:  E(ULC-wPBE) =  -6092.51426106     A.U. after    7 cycles
 SCF Done:  E(ULC-wPBE) =  -6092.51426114     A.U. after    7 cycles
 SCF Done:  E(ULC-wPBE) =  -6092.51426108     A.U. after    7 cycles
 SCF Done:  E(ULC-wPBE) =  -6092.51426095     A.U. after    7 cycles
 SCF Done:  E(ULC-wPBE) =  -6092.51426109     A.U. after    7 cycles
 Optimization completed.
    -- Stationary point found.

                         Standard orientation:
 ---------------------------------------------------------------------
 Center     Atomic      Atomic             Coordinates (Angstroms)
 Number     Number       Type             X           Y           Z
 ---------------------------------------------------------------------
      1          6           0       17.740378    3.176872   -0.008453
      2          6           0       16.688412    4.038250   -0.247875
      3          6           0       15.453506    3.339276   -0.244931
      4          9           0       14.264924    3.948617   -0.455760
      5          6           0       15.545699    1.971757   -0.009079
      6         16           0       17.229032    1.531571    0.218263
      7          6           0       14.510268    0.972424    0.061936
      8          7           0       14.745341   -0.310919    0.297263
      9          6           0       13.585364   -1.024179    0.315514
     10          6           0       12.403864   -0.319462    0.088805
     11         16           0       12.797267    1.374549   -0.166140
     12          6           0       11.051616   -0.829800    0.051950
     13          6           0       10.650633   -2.164100   -0.021777
     14          6           0        9.245396   -2.284752   -0.024202
     15          9           0        8.615082   -3.478869   -0.094635
     16          6           0        8.536429   -1.087502    0.038325
     17         16           0        9.666447    0.253257    0.118980
     18          6           0        7.120287   -0.845044    0.043882
     19          7           0        6.587945    0.369163    0.104951
     20          6           0        5.228549    0.304747    0.095865
     21          6           0        4.650968   -0.962598    0.027730
     22         16           0        5.934369   -2.164101   -0.029636
     23          6           0        3.255438   -1.330950    0.002494
     24          6           0        2.697699   -2.606854   -0.066605
     25          6           0        1.287320   -2.561488   -0.070783
     26          9           0        0.520708   -3.673224   -0.132479
     27          6           0        0.726459   -1.289211   -0.007001
     28         16           0        2.005746   -0.088279    0.061687
     29          6           0       -0.651046   -0.880729    0.007626
     30          7           0       -1.035288    0.387872    0.072451
     31          6           0       -2.392845    0.485142    0.070622
     32          6           0       -3.116975   -0.704724    0.004111
     33         16           0       -1.985460   -2.049726   -0.060996
     34          6           0       -4.546516   -0.905061   -0.014093
     35          6           0       -5.252191   -2.105692   -0.075247
     36          6           0       -6.647416   -1.893184   -0.073721
     37          9           0       -7.540648   -2.906669   -0.127060
     38          6           0       -7.052891   -0.563199   -0.013272
     39         16           0       -5.639763    0.477437    0.044268
     40          6           0       -8.372089    0.007015    0.005230
     41          7           0       -8.601849    1.312230    0.065267
     42          6           0       -9.938605    1.570908    0.068810
     43          6           0      -10.799737    0.475912    0.011501
     44         16           0       -9.837046   -0.994463   -0.051765
     45          6           0      -12.243726    0.446855    0.000624
     46          6           0      -13.087843   -0.660273   -0.049014
     47          6           0      -14.448886   -0.281836   -0.043037
     48          9           0      -15.456272   -1.183116   -0.085402
     49          6           0      -14.691413    1.085852    0.009700
     50         16           0      -13.164863    1.949739    0.053777
     51          6           0      -15.935404    1.814149    0.030390
     52          7           0      -16.003140    3.135193    0.082659
     53          6           0      -17.309121    3.553511    0.090291
     54          6           0      -18.268741    2.563849    0.044111
     55         16           0      -17.513377    1.000743   -0.013006
     56          1           0       18.806732    3.419837    0.048810
     57          1           0       16.778948    5.116771   -0.418798
     58          1           0       13.624582   -2.102078    0.520306
     59          1           0       11.330687   -3.020000   -0.091922
     60          1           0        4.649676    1.237653    0.141758
     61          1           0        3.273719   -3.538352   -0.112547
     62          1           0       -2.856907    1.479910    0.121077
     63          1           0       -4.791240   -3.099293   -0.119146
     64          1           0      -10.280526    2.614060    0.116260
     65          1           0      -12.749694   -1.702366   -0.087601
     66          1           0      -17.526513    4.628842    0.131714
     67          1           0      -19.359350    2.662677    0.040522
 ---------------------------------------------------------------------

 The electronic state is 1-A.
 Alpha  occ. eigenvalues --  -88.16537 -88.16480 -88.16321 -88.16302 -88.16198
 Alpha  occ. eigenvalues --  -88.16136 -88.16069 -88.15804 -88.15732 -88.15243
 Alpha  occ. eigenvalues --  -24.35672 -24.35564 -24.35512 -24.35352 -24.34848
 Alpha  occ. eigenvalues --  -14.05811 -14.05718 -14.05601 -14.05348 -14.04558
 Alpha  occ. eigenvalues --  -10.04579 -10.04456 -10.04347 -10.04241 -10.03738
 Alpha  occ. eigenvalues --  -10.02705 -10.02635 -10.02490 -10.02206 -10.01463
 Alpha  occ. eigenvalues --  -10.00942 -10.00809 -10.00608 -10.00160 -10.00030
 Alpha  occ. eigenvalues --   -9.99938  -9.99848  -9.99813  -9.99770  -9.99718
 Alpha  occ. eigenvalues --   -9.99582  -9.99542  -9.99379  -9.99122  -9.98950
 Alpha  occ. eigenvalues --   -9.98854  -9.98706  -9.98388  -9.97560  -9.97524
 Alpha  occ. eigenvalues --   -9.97264  -9.97166  -9.97152  -9.96979  -9.96585
 Alpha  occ. eigenvalues --   -7.76735  -7.76677  -7.76559  -7.76526  -7.76459
 Alpha  occ. eigenvalues --   -7.76341  -7.76330  -7.76064  -7.75937  -7.75492
 Alpha  occ. eigenvalues --   -5.78865  -5.78790  -5.78663  -5.78645  -5.78549
 Alpha  occ. eigenvalues --   -5.78477  -5.78427  -5.78420  -5.78343  -5.78230
 Alpha  occ. eigenvalues --   -5.78222  -5.78154  -5.78133  -5.78071  -5.78036
 Alpha  occ. eigenvalues --   -5.78004  -5.77931  -5.77917  -5.77813  -5.77738
 Alpha  occ. eigenvalues --   -5.77709  -5.77703  -5.77630  -5.77574  -5.77560
 Alpha  occ. eigenvalues --   -5.77524  -5.77309  -5.77143  -5.77124  -5.76788
 Alpha  occ. eigenvalues --   -1.18727  -1.18624  -1.18551  -1.18409  -1.17904
 Alpha  occ. eigenvalues --   -0.93934  -0.93839  -0.93710  -0.93440  -0.92567
 Alpha  occ. eigenvalues --   -0.87675  -0.87404  -0.87137  -0.86984  -0.86694
 Alpha  occ. eigenvalues --   -0.80123  -0.79845  -0.79616  -0.79274  -0.77239
 Alpha  occ. eigenvalues --   -0.77114  -0.76635  -0.76146  -0.75713  -0.74967
 Alpha  occ. eigenvalues --   -0.73613  -0.73377  -0.73219  -0.72974  -0.72588
 Alpha  occ. eigenvalues --   -0.71675  -0.70836  -0.69723  -0.68746  -0.68323
 Alpha  occ. eigenvalues --   -0.63936  -0.63539  -0.62973  -0.62295  -0.60979
 Alpha  occ. eigenvalues --   -0.60784  -0.60131  -0.59245  -0.58467  -0.57999
 Alpha  occ. eigenvalues --   -0.57602  -0.56627  -0.56502  -0.56126  -0.55811
 Alpha  occ. eigenvalues --   -0.55053  -0.54870  -0.54580  -0.54252  -0.53867
 Alpha  occ. eigenvalues --   -0.53078  -0.51939  -0.51650  -0.50682  -0.49394
 Alpha  occ. eigenvalues --   -0.48453  -0.48166  -0.48037  -0.47847  -0.47453
 Alpha  occ. eigenvalues --   -0.47102  -0.46968  -0.46860  -0.46757  -0.46739
 Alpha  occ. eigenvalues --   -0.46512  -0.46269  -0.46172  -0.46071  -0.45694
 Alpha  occ. eigenvalues --   -0.45496  -0.44730  -0.44357  -0.44050  -0.43700
 Alpha  occ. eigenvalues --   -0.43378  -0.43271  -0.43157  -0.43019  -0.42787
 Alpha  occ. eigenvalues --   -0.42748  -0.41816  -0.41624  -0.41314  -0.40579
 Alpha  occ. eigenvalues --   -0.40012  -0.39625  -0.39505  -0.39283  -0.39168
 Alpha  occ. eigenvalues --   -0.39013  -0.38844  -0.38676  -0.38428  -0.38192
 Alpha  occ. eigenvalues --   -0.38005  -0.37818  -0.37723  -0.37383  -0.37036
 Alpha  occ. eigenvalues --   -0.36591  -0.36177  -0.35987  -0.35764  -0.35613
 Alpha  occ. eigenvalues --   -0.35250  -0.34180  -0.33174  -0.32081  -0.31167
 Alpha  occ. eigenvalues --   -0.30384  -0.30089  -0.29836  -0.29744  -0.29311
 Alpha  occ. eigenvalues --   -0.29055  -0.28934  -0.28819  -0.28623  -0.28568
 Alpha  occ. eigenvalues --   -0.27950  -0.27926  -0.27856  -0.27764  -0.27541
 Alpha  occ. eigenvalues --   -0.27193  -0.26519  -0.25047  -0.23486  -0.21988
 Alpha  occ. eigenvalues --   -0.20848
 Alpha virt. eigenvalues --   -0.08963  -0.07762  -0.06379  -0.04971  -0.03748
 Alpha virt. eigenvalues --   -0.02208  -0.01235  -0.01021   0.00240   0.00466
 Alpha virt. eigenvalues --    0.00750   0.01060   0.01183   0.01243   0.01387

  Beta  occ. eigenvalues --  -88.16537 -88.16480 -88.16321 -88.16302 -88.16198
  Beta  occ. eigenvalues --  -88.16136 -88.16069 -88.15804 -88.15732 -88.15243
  Beta  occ. eigenvalues --  -24.35672 -24.35564 -24.35512 -24.35352 -24.34848
  Beta  occ. eigenvalues --  -14.05811 -14.05718 -14.05601 -14.05348 -14.04558
  Beta  occ. eigenvalues --  -10.04579 -10.04456 -10.04347 -10.04241 -10.03738
  Beta  occ. eigenvalues --  -10.02705 -10.02635 -10.02490 -10.02206 -10.01463
  Beta  occ. eigenvalues --  -10.00942 -10.00809 -10.00608 -10.00160 -10.00030
  Beta  occ. eigenvalues --   -9.99938  -9.99848  -9.99813  -9.99770  -9.99718
  Beta  occ. eigenvalues --   -9.99582  -9.99542  -9.99379  -9.99122  -9.98950
  Beta  occ. eigenvalues --   -9.98854  -9.98706  -9.98388  -9.97560  -9.97524
  Beta  occ. eigenvalues --   -9.97264  -9.97166  -9.97152  -9.96979  -9.96585
  Beta  occ. eigenvalues --   -7.76735  -7.76677  -7.76559  -7.76526  -7.76459
  Beta  occ. eigenvalues --   -7.76341  -7.76330  -7.76064  -7.75937  -7.75492
  Beta  occ. eigenvalues --   -5.78865  -5.78790  -5.78663  -5.78645  -5.78549
  Beta  occ. eigenvalues --   -5.78477  -5.78427  -5.78420  -5.78343  -5.78230
  Beta  occ. eigenvalues --   -5.78222  -5.78154  -5.78133  -5.78071  -5.78036
  Beta  occ. eigenvalues --   -5.78004  -5.77931  -5.77917  -5.77813  -5.77738
  Beta  occ. eigenvalues --   -5.77709  -5.77703  -5.77630  -5.77574  -5.77560
  Beta  occ. eigenvalues --   -5.77524  -5.77309  -5.77143  -5.77124  -5.76788
  Beta  occ. eigenvalues --   -1.18727  -1.18624  -1.18551  -1.18409  -1.17904
  Beta  occ. eigenvalues --   -0.93934  -0.93839  -0.93710  -0.93440  -0.92567
  Beta  occ. eigenvalues --   -0.87675  -0.87404  -0.87137  -0.86984  -0.86694
  Beta  occ. eigenvalues --   -0.80123  -0.79845  -0.79616  -0.79274  -0.77239
  Beta  occ. eigenvalues --   -0.77114  -0.76635  -0.76146  -0.75713  -0.74967
  Beta  occ. eigenvalues --   -0.73613  -0.73377  -0.73219  -0.72974  -0.72588
  Beta  occ. eigenvalues --   -0.71675  -0.70836  -0.69723  -0.68746  -0.68323
  Beta  occ. eigenvalues --   -0.63936  -0.63539  -0.62973  -0.62295  -0.60979
  Beta  occ. eigenvalues --   -0.60784  -0.60131  -0.59245  -0.58467  -0.57999
  Beta  occ. eigenvalues --   -0.57602  -0.56627  -0.56502  -0.56126  -0.55811
  Beta  occ. eigenvalues --   -0.55053  -0.54870  -0.54580  -0.54252  -0.53867
  Beta  occ. eigenvalues --   -0.53078  -0.51939  -0.51650  -0.50682  -0.49394
  Beta  occ. eigenvalues --   -0.48453  -0.48166  -0.48037  -0.47847  -0.47453
  Beta  occ. eigenvalues --   -0.47102  -0.46968  -0.46860  -0.46757  -0.46739
  Beta  occ. eigenvalues --   -0.46512  -0.46269  -0.46172  -0.46071  -0.45694
  Beta  occ. eigenvalues --   -0.45496  -0.44730  -0.44357  -0.44050  -0.43700
  Beta  occ. eigenvalues --   -0.43378  -0.43271  -0.43157  -0.43019  -0.42787
  Beta  occ. eigenvalues --   -0.42748  -0.41816  -0.41624  -0.41314  -0.40579
  Beta  occ. eigenvalues --   -0.40012  -0.39625  -0.39505  -0.39283  -0.39168
  Beta  occ. eigenvalues --   -0.39013  -0.38844  -0.38676  -0.38428  -0.38192
  Beta  occ. eigenvalues --   -0.38005  -0.37818  -0.37723  -0.37383  -0.37036
  Beta  occ. eigenvalues --   -0.36591  -0.36177  -0.35987  -0.35764  -0.35613
  Beta  occ. eigenvalues --   -0.35250  -0.34180  -0.33174  -0.32081  -0.31167
  Beta  occ. eigenvalues --   -0.30384  -0.30089  -0.29836  -0.29744  -0.29311
  Beta  occ. eigenvalues --   -0.29055  -0.28934  -0.28819  -0.28623  -0.28568
  Beta  occ. eigenvalues --   -0.27950  -0.27926  -0.27856  -0.27764  -0.27541
  Beta  occ. eigenvalues --   -0.27193  -0.26519  -0.25047  -0.23486  -0.21988
  Beta  occ. eigenvalues --   -0.20848
  Beta virt. eigenvalues --   -0.08963  -0.07762  -0.06379  -0.04971  -0.03748
  Beta virt. eigenvalues --   -0.02208  -0.01235  -0.01021   0.00240   0.00466
  Beta virt. eigenvalues --    0.00750   0.01060   0.01183   0.01243   0.01387

 Mulliken charges and spin densities:
               1          2
     1  C   -0.118424   0.000000
     2  C    0.080613  -0.000000
     3  C    0.089559  -0.000000
     4  F   -0.111958  -0.000000
     5  C   -0.145772   0.000000
     6  S    0.208306   0.000000
     7  C    0.058204  -0.000000
     8  N   -0.189518  -0.000000
     9  C    0.135581  -0.000000
    10  C   -0.155806   0.000000
    11  S    0.153900   0.000000
    12  C   -0.105586   0.000000
    13  C    0.046335  -0.000000
    14  C    0.106963   0.000000
    15  F   -0.111443  -0.000000
    16  C   -0.134255  -0.000000
    17  S    0.207467  -0.000000
    18  C    0.045396   0.000000
    19  N   -0.190242   0.000000
    20  C    0.134639   0.000000
    21  C   -0.154665   0.000000
    22  S    0.142117   0.000000
    23  C   -0.108741   0.000000
    24  C    0.050011  -0.000000
    25  C    0.104782   0.000000
    26  F   -0.110958  -0.000000
    27  C   -0.130893  -0.000000
    28  S    0.197807  -0.000000
    29  C    0.045529  -0.000000
    30  N   -0.190373  -0.000000
    31  C    0.134005   0.000000
    32  C   -0.154271  -0.000000
    33  S    0.142102   0.000000
    34  C   -0.109150  -0.000000
    35  C    0.049735   0.000000
    36  C    0.104176  -0.000000
    37  F   -0.111383  -0.000000
    38  C   -0.130215   0.000000
    39  S    0.196862   0.000000
    40  C    0.044375  -0.000000
    41  N   -0.190709  -0.000000
    42  C    0.132670   0.000000
    43  C   -0.151587  -0.000000
    44  S    0.140889   0.000000
    45  C   -0.111172  -0.000000
    46  C    0.046208   0.000000
    47  C    0.105365   0.000000
    48  F   -0.113279   0.000000
    49  C   -0.115419  -0.000000
    50  S    0.193459  -0.000000
    51  C    0.014964   0.000000
    52  N   -0.194788  -0.000000
    53  C    0.131810  -0.000000
    54  C   -0.160575   0.000000
    55  S    0.152736  -0.000000
    56  H    0.031506   0.000000
    57  H    0.004597   0.000000
    58  H    0.004263   0.000000
    59  H   -0.004301  -0.000000
    60  H    0.013344   0.000000
    61  H    0.002066  -0.000000
    62  H    0.013044   0.000000
    63  H    0.001617   0.000000
    64  H    0.012008   0.000000
    65  H   -0.000053   0.000000
    66  H    0.001941  -0.000000
    67  H    0.024586  -0.000000
 Sum of Mulliken charges =  -0.00000   0.00000

 Dipole moment (field-independent basis, Debye):
    X=              5.0088    Y=             -0.7750    Z=             -0.1781  Tot=              5.0715
 Quadrupole moment (field-independent basis, Debye-Ang):
   XX=           -256.8581   YY=           -355.2796   ZZ=           -384.4231
   XY=             19.0211   XZ=             -1.5034   YZ=             -0.2704

 Normal termination of Gaussian 16 at Fri Jul 24 08:37:07 2020.
