 Gaussian 16, Revision A.03,
 Gaussian 16:  EM64L-G16RevA.03 25-Dec-2016

 ---------------------------------------------------------------
 #P uLC-wPBE/cc-pVDZ iop(3/107=0170200000, 3/108=0170200000) opt
 ---------------------------------------------------------------

 ----------------
 H20 C33 S3 O3 F6
 ----------------
 Symbolic Z-matrix:
 Charge =  0 Multiplicity = 1

 SCF Done:  E(ULC-wPBE) =  -3286.56301125     A.U. after   17 cycles
 SCF Done:  E(ULC-wPBE) =  -3286.62263855     A.U. after   16 cycles
 SCF Done:  E(ULC-wPBE) =  -3286.66470616     A.U. after   15 cycles
 SCF Done:  E(ULC-wPBE) =  -3286.66856250     A.U. after   15 cycles
 SCF Done:  E(ULC-wPBE) =  -3286.67138180     A.U. after   15 cycles
 SCF Done:  E(ULC-wPBE) =  -3286.67302936     A.U. after   17 cycles
 SCF Done:  E(ULC-wPBE) =  -3286.67414691     A.U. after   13 cycles
 SCF Done:  E(ULC-wPBE) =  -3286.67464447     A.U. after   14 cycles
 SCF Done:  E(ULC-wPBE) =  -3286.67495167     A.U. after   13 cycles
 SCF Done:  E(ULC-wPBE) =  -3286.67501913     A.U. after   13 cycles
 SCF Done:  E(ULC-wPBE) =  -3286.67503617     A.U. after   11 cycles
 SCF Done:  E(ULC-wPBE) =  -3286.67504651     A.U. after   11 cycles
 SCF Done:  E(ULC-wPBE) =  -3286.67504872     A.U. after    8 cycles
 SCF Done:  E(ULC-wPBE) =  -3286.67505017     A.U. after    8 cycles
 SCF Done:  E(ULC-wPBE) =  -3286.67505086     A.U. after    8 cycles
 SCF Done:  E(ULC-wPBE) =  -3286.67505093     A.U. after    8 cycles
 SCF Done:  E(ULC-wPBE) =  -3286.67505103     A.U. after    7 cycles
 SCF Done:  E(ULC-wPBE) =  -3286.67505108     A.U. after    6 cycles
 Optimization completed.
    -- Stationary point found.

                         Standard orientation:
 ---------------------------------------------------------------------
 Center     Atomic      Atomic             Coordinates (Angstroms)
 Number     Number       Type             X           Y           Z
 ---------------------------------------------------------------------
      1          6           0       11.451018    0.215402   -0.031238
      2          6           0       10.966881   -0.889859   -0.731328
      3          6           0        9.598877   -1.161680   -0.672291
      4          9           0        9.127594   -2.215862   -1.373779
      5          6           0        8.688984   -0.388452    0.067290
      6          6           0        9.216195    0.737446    0.757566
      7          8           0        8.298067    1.475043    1.445264
      8          6           0        8.761253    2.614058    2.160718
      9          6           0       10.587348    1.034178    0.708892
     10          6           0        7.262689   -0.747177    0.108556
     11          6           0        6.708281   -1.999400    0.299779
     12          9           0        7.450155   -3.090800    0.568478
     13          6           0        5.292927   -2.062435    0.223594
     14          6           0        4.735039   -0.823600   -0.030092
     15         16           0        5.973236    0.399170   -0.173099
     16          6           0        3.310460   -0.478605   -0.168966
     17          6           0        2.395072   -1.449412   -0.608248
     18          6           0        1.052699   -1.101357   -0.729425
     19          9           0        0.188347   -2.050900   -1.160025
     20          6           0        0.546663    0.176830   -0.448979
     21          6           0        1.487344    1.141158    0.008857
     22          8           0        0.966344    2.356858    0.322504
     23          6           0        1.863426    3.381607    0.732707
     24          6           0        2.844898    0.815575    0.140577
     25          6           0       -0.876066    0.506022   -0.617163
     26          6           0       -1.441261    1.596511   -1.251924
     27          9           0       -0.710812    2.535040   -1.885126
     28          6           0       -2.858791    1.651565   -1.226771
     29          6           0       -3.407044    0.571720   -0.559352
     30         16           0       -2.156170   -0.488978    0.036163
     31          6           0       -4.829038    0.265077   -0.331608
     32          6           0       -5.271604   -1.059020   -0.189181
     33          6           0       -6.627914   -1.301237    0.021464
     34          9           0       -7.028723   -2.587028    0.121518
     35          6           0       -7.595662   -0.288258    0.108235
     36          6           0       -7.126813    1.044398   -0.055485
     37          8           0       -8.089885    2.006010    0.017571
     38          6           0       -7.694167    3.362899   -0.144288
     39          6           0       -5.768385    1.315419   -0.263601
     40          6           0       -9.008931   -0.611039    0.354252
     41          6           0       -9.525696   -1.501032    1.278047
     42          9           0       -8.755396   -2.163337    2.163108
     43          6           0      -10.939408   -1.659815    1.251566
     44          6           0      -11.506930   -0.868278    0.281522
     45         16           0      -10.329321    0.064059   -0.575091
     46          1           0       12.522710    0.452800   -0.062055
     47          1           0       11.616674   -1.541349   -1.327129
     48          1           0        7.867020    3.053218    2.635361
     49          1           0        9.492190    2.333012    2.948021
     50          1           0        9.223491    3.363933    1.484308
     51          1           0       10.990157    1.898360    1.247930
     52          1           0        4.723194   -2.982332    0.390597
     53          1           0        2.709199   -2.460587   -0.890390
     54          1           0        2.382997    3.118810    1.678583
     55          1           0        2.618797    3.600895   -0.050942
     56          1           0        1.238831    4.276053    0.897641
     57          1           0        3.554573    1.558641    0.521185
     58          1           0       -3.436775    2.436533   -1.725451
     59          1           0       -4.588756   -1.913305   -0.271736
     60          1           0       -7.228717    3.538532   -1.137232
     61          1           0       -8.621520    3.955625   -0.065814
     62          1           0       -6.988088    3.680571    0.651741
     63          1           0       -5.416402    2.349167   -0.342304
     64          1           0      -11.487417   -2.324012    1.927690
     65          1           0      -12.566828   -0.765121    0.030068
 ---------------------------------------------------------------------

 The electronic state is 1-A.
 Alpha  occ. eigenvalues --  -88.20069 -88.19975 -88.19651 -24.38484 -24.38188
 Alpha  occ. eigenvalues --  -24.38133 -24.38126 -24.37955 -24.37742 -18.90984
 Alpha  occ. eigenvalues --  -18.90797 -18.90671 -10.08385 -10.08202 -10.08097
 Alpha  occ. eigenvalues --  -10.07589 -10.07584 -10.07130 -10.07090 -10.07034
 Alpha  occ. eigenvalues --  -10.06931 -10.06107 -10.05858 -10.05772 -10.03830
 Alpha  occ. eigenvalues --  -10.03808 -10.03317 -10.03283 -10.03052 -10.02852
 Alpha  occ. eigenvalues --  -10.02818 -10.02613 -10.02189 -10.02176 -10.01967
 Alpha  occ. eigenvalues --  -10.01392 -10.00658 -10.00623 -10.00531 -10.00496
 Alpha  occ. eigenvalues --  -10.00409 -10.00341 -10.00263 -10.00181 -10.00125
 Alpha  occ. eigenvalues --   -7.80363  -7.80284  -7.79948  -5.82422  -5.82342
 Alpha  occ. eigenvalues --   -5.82000  -5.81966  -5.81884  -5.81539  -5.81523
 Alpha  occ. eigenvalues --   -5.81444  -5.81127  -1.22020  -1.21959  -1.21732
 Alpha  occ. eigenvalues --   -1.21679  -1.21455  -1.21121  -1.09206  -1.09045
 Alpha  occ. eigenvalues --   -1.09041  -0.92168  -0.91934  -0.91066  -0.89421
 Alpha  occ. eigenvalues --   -0.88759  -0.88300  -0.83477  -0.82148  -0.80894
 Alpha  occ. eigenvalues --   -0.78893  -0.78744  -0.78571  -0.77359  -0.76922
 Alpha  occ. eigenvalues --   -0.76757  -0.76223  -0.75542  -0.74867  -0.74197
 Alpha  occ. eigenvalues --   -0.73450  -0.72290  -0.68733  -0.67008  -0.65937
 Alpha  occ. eigenvalues --   -0.64907  -0.64658  -0.64402  -0.61863  -0.61462
 Alpha  occ. eigenvalues --   -0.61308  -0.61022  -0.60832  -0.60611  -0.59522
 Alpha  occ. eigenvalues --   -0.58965  -0.57982  -0.57158  -0.56392  -0.55669
 Alpha  occ. eigenvalues --   -0.55556  -0.55447  -0.55048  -0.53784  -0.53607
 Alpha  occ. eigenvalues --   -0.53262  -0.52242  -0.52148  -0.52027  -0.51977
 Alpha  occ. eigenvalues --   -0.51671  -0.51156  -0.50220  -0.50143  -0.50017
 Alpha  occ. eigenvalues --   -0.49737  -0.49505  -0.49407  -0.48914  -0.48861
 Alpha  occ. eigenvalues --   -0.48806  -0.48527  -0.48349  -0.48003  -0.47885
 Alpha  occ. eigenvalues --   -0.47673  -0.46523  -0.46008  -0.44926  -0.44675
 Alpha  occ. eigenvalues --   -0.44403  -0.43980  -0.43822  -0.43581  -0.43419
 Alpha  occ. eigenvalues --   -0.43122  -0.42901  -0.42280  -0.41680  -0.41461
 Alpha  occ. eigenvalues --   -0.41235  -0.41081  -0.40613  -0.40504  -0.40459
 Alpha  occ. eigenvalues --   -0.40225  -0.39152  -0.38916  -0.38854  -0.38559
 Alpha  occ. eigenvalues --   -0.38284  -0.38193  -0.37612  -0.37465  -0.37389
 Alpha  occ. eigenvalues --   -0.33795  -0.32873  -0.31574  -0.30310  -0.30191
 Alpha  occ. eigenvalues --   -0.29782  -0.29023  -0.28961  -0.28921  -0.28150
 Alpha  occ. eigenvalues --   -0.26472  -0.24874
 Alpha virt. eigenvalues --   -0.02259  -0.00322   0.02504   0.03547   0.04322
 Alpha virt. eigenvalues --    0.04606   0.04767   0.05873   0.07019   0.07779
 Alpha virt. eigenvalues --    0.08133   0.08510   0.10443   0.10538   0.11063

  Beta  occ. eigenvalues --  -88.20069 -88.19975 -88.19651 -24.38484 -24.38188
  Beta  occ. eigenvalues --  -24.38133 -24.38126 -24.37955 -24.37742 -18.90984
  Beta  occ. eigenvalues --  -18.90797 -18.90671 -10.08385 -10.08202 -10.08097
  Beta  occ. eigenvalues --  -10.07589 -10.07584 -10.07130 -10.07090 -10.07034
  Beta  occ. eigenvalues --  -10.06931 -10.06107 -10.05858 -10.05772 -10.03830
  Beta  occ. eigenvalues --  -10.03808 -10.03317 -10.03283 -10.03052 -10.02852
  Beta  occ. eigenvalues --  -10.02818 -10.02613 -10.02189 -10.02176 -10.01967
  Beta  occ. eigenvalues --  -10.01392 -10.00658 -10.00623 -10.00531 -10.00496
  Beta  occ. eigenvalues --  -10.00409 -10.00341 -10.00263 -10.00181 -10.00125
  Beta  occ. eigenvalues --   -7.80363  -7.80284  -7.79948  -5.82422  -5.82342
  Beta  occ. eigenvalues --   -5.82000  -5.81966  -5.81884  -5.81539  -5.81523
  Beta  occ. eigenvalues --   -5.81444  -5.81127  -1.22020  -1.21959  -1.21732
  Beta  occ. eigenvalues --   -1.21679  -1.21455  -1.21121  -1.09206  -1.09045
  Beta  occ. eigenvalues --   -1.09041  -0.92168  -0.91934  -0.91066  -0.89421
  Beta  occ. eigenvalues --   -0.88759  -0.88300  -0.83477  -0.82148  -0.80894
  Beta  occ. eigenvalues --   -0.78893  -0.78744  -0.78571  -0.77359  -0.76922
  Beta  occ. eigenvalues --   -0.76757  -0.76223  -0.75542  -0.74867  -0.74197
  Beta  occ. eigenvalues --   -0.73450  -0.72290  -0.68733  -0.67008  -0.65937
  Beta  occ. eigenvalues --   -0.64907  -0.64658  -0.64402  -0.61863  -0.61462
  Beta  occ. eigenvalues --   -0.61308  -0.61022  -0.60832  -0.60611  -0.59522
  Beta  occ. eigenvalues --   -0.58965  -0.57982  -0.57158  -0.56392  -0.55669
  Beta  occ. eigenvalues --   -0.55556  -0.55447  -0.55048  -0.53784  -0.53607
  Beta  occ. eigenvalues --   -0.53262  -0.52242  -0.52148  -0.52027  -0.51977
  Beta  occ. eigenvalues --   -0.51671  -0.51156  -0.50220  -0.50143  -0.50017
  Beta  occ. eigenvalues --   -0.49737  -0.49505  -0.49407  -0.48914  -0.48861
  Beta  occ. eigenvalues --   -0.48806  -0.48527  -0.48349  -0.48003  -0.47885
  Beta  occ. eigenvalues --   -0.47673  -0.46523  -0.46008  -0.44926  -0.44675
  Beta  occ. eigenvalues --   -0.44403  -0.43980  -0.43822  -0.43581  -0.43419
  Beta  occ. eigenvalues --   -0.43122  -0.42901  -0.42280  -0.41680  -0.41461
  Beta  occ. eigenvalues --   -0.41235  -0.41081  -0.40613  -0.40504  -0.40459
  Beta  occ. eigenvalues --   -0.40225  -0.39152  -0.38916  -0.38854  -0.38559
  Beta  occ. eigenvalues --   -0.38284  -0.38193  -0.37612  -0.37465  -0.37389
  Beta  occ. eigenvalues --   -0.33795  -0.32873  -0.31574  -0.30310  -0.30191
  Beta  occ. eigenvalues --   -0.29782  -0.29023  -0.28961  -0.28921  -0.28150
  Beta  occ. eigenvalues --   -0.26472  -0.24874
  Beta virt. eigenvalues --   -0.02259  -0.00322   0.02504   0.03547   0.04322
  Beta virt. eigenvalues --    0.04606   0.04767   0.05873   0.07019   0.07779
  Beta virt. eigenvalues --    0.08133   0.08510   0.10443   0.10538   0.11063

 Mulliken charges and spin densities:
               1          2
     1  C    0.038546   0.000000
     2  C    0.013592  -0.000000
     3  C    0.100802   0.000000
     4  F   -0.115962   0.000000
     5  C   -0.028336  -0.000000
     6  C    0.108446  -0.000000
     7  O   -0.233420   0.000000
     8  C    0.061682  -0.000000
     9  C   -0.028020   0.000000
    10  C   -0.158784   0.000000
    11  C    0.143352   0.000000
    12  F   -0.114194  -0.000000
    13  C    0.029406   0.000000
    14  C   -0.148059  -0.000000
    15  S    0.174261  -0.000000
    16  C    0.092770  -0.000000
    17  C   -0.010489   0.000000
    18  C    0.112052  -0.000000
    19  F   -0.117820  -0.000000
    20  C   -0.018962   0.000000
    21  C    0.112879  -0.000000
    22  O   -0.227081  -0.000000
    23  C    0.063562  -0.000000
    24  C   -0.046815  -0.000000
    25  C   -0.168697  -0.000000
    26  C    0.148502   0.000000
    27  F   -0.116935  -0.000000
    28  C    0.024931  -0.000000
    29  C   -0.145641  -0.000000
    30  S    0.185717  -0.000000
    31  C    0.084371   0.000000
    32  C   -0.009462  -0.000000
    33  C    0.105479   0.000000
    34  F   -0.113984   0.000000
    35  C   -0.006279  -0.000000
    36  C    0.118479   0.000000
    37  O   -0.233363  -0.000000
    38  C    0.064577  -0.000000
    39  C   -0.042898   0.000000
    40  C   -0.173353  -0.000000
    41  C    0.125264  -0.000000
    42  F   -0.116978   0.000000
    43  C    0.055177   0.000000
    44  C   -0.121945  -0.000000
    45  S    0.175866   0.000000
    46  H   -0.010161   0.000000
    47  H   -0.006555  -0.000000
    48  H    0.051972   0.000000
    49  H    0.049035  -0.000000
    50  H    0.047155  -0.000000
    51  H   -0.016445   0.000000
    52  H   -0.004880   0.000000
    53  H   -0.014530   0.000000
    54  H    0.047883   0.000000
    55  H    0.048869   0.000000
    56  H    0.052330   0.000000
    57  H   -0.016928  -0.000000
    58  H   -0.010214   0.000000
    59  H   -0.006642   0.000000
    60  H    0.045806   0.000000
    61  H    0.053799   0.000000
    62  H    0.050162   0.000000
    63  H   -0.024972  -0.000000
    64  H   -0.002562   0.000000
    65  H    0.024644  -0.000000
 Sum of Mulliken charges =  -0.00000  -0.00000

 Dipole moment (field-independent basis, Debye):
    X=              1.9599    Y=              6.8759    Z=              1.7034  Tot=              7.3499
 Quadrupole moment (field-independent basis, Debye-Ang):
   XX=           -216.4340   YY=           -250.6665   ZZ=           -275.0837
   XY=              8.4602   XZ=             16.7979   YZ=              6.2694

 Normal termination of Gaussian 16 at Sat Jul 25 09:00:15 2020.
