 Gaussian 16, Revision A.03,
 Gaussian 16:  EM64L-G16RevA.03 25-Dec-2016

 ---------------------------------------------------------------
 #P uLC-wPBE/cc-pVDZ iop(3/107=0491900000, 3/108=0491900000) opt
 ---------------------------------------------------------------

 -------------
 H17 C33 N3 F6
 -------------
 Symbolic Z-matrix:
 Charge =  0 Multiplicity = 1

 SCF Done:  E(ULC-wPBE) =  -2029.72505547     A.U. after   16 cycles
 SCF Done:  E(ULC-wPBE) =  -2029.78538077     A.U. after   14 cycles
 SCF Done:  E(ULC-wPBE) =  -2029.82174945     A.U. after   15 cycles
 SCF Done:  E(ULC-wPBE) =  -2029.82455873     A.U. after   14 cycles
 SCF Done:  E(ULC-wPBE) =  -2029.82566416     A.U. after   14 cycles
 SCF Done:  E(ULC-wPBE) =  -2029.82572038     A.U. after   13 cycles
 SCF Done:  E(ULC-wPBE) =  -2029.82606917     A.U. after   13 cycles
 SCF Done:  E(ULC-wPBE) =  -2029.82614399     A.U. after   12 cycles
 SCF Done:  E(ULC-wPBE) =  -2029.82616181     A.U. after   11 cycles
 SCF Done:  E(ULC-wPBE) =  -2029.82616658     A.U. after   10 cycles
 SCF Done:  E(ULC-wPBE) =  -2029.82616828     A.U. after    9 cycles
 SCF Done:  E(ULC-wPBE) =  -2029.82616854     A.U. after    8 cycles
 SCF Done:  E(ULC-wPBE) =  -2029.82616854     A.U. after    7 cycles
 Optimization completed.
    -- Stationary point found.

                         Standard orientation:
 ---------------------------------------------------------------------
 Center     Atomic      Atomic             Coordinates (Angstroms)
 Number     Number       Type             X           Y           Z
 ---------------------------------------------------------------------
      1          6           0      -11.991992   -0.155279    0.271960
      2          6           0      -11.394029    0.955400   -0.291075
      3          6           0      -10.020214    0.978923   -0.363808
      4          9           0       -9.416689    2.011906   -0.948328
      5          6           0       -9.266496   -0.075708    0.133583
      6          7           0       -9.858341   -1.148091    0.645063
      7          6           0      -11.178956   -1.184955    0.713569
      8          6           0       -7.788426   -0.093082    0.063094
      9          6           0       -7.128876   -1.242087   -0.356043
     10          6           0       -5.751660   -1.296500   -0.424874
     11          6           0       -4.983435   -0.194958   -0.056808
     12          6           0       -5.627484    0.949630    0.391767
     13          6           0       -7.004416    0.980483    0.449475
     14          9           0       -7.587433    2.083976    0.921159
     15          6           0       -3.507716   -0.242816   -0.128640
     16          6           0       -2.851851   -0.839748   -1.194251
     17          6           0       -1.477592   -0.847283   -1.196418
     18          9           0       -0.835550   -1.416575   -2.219963
     19          6           0       -0.756572   -0.270866   -0.160324
     20          7           0       -1.392355    0.290954    0.860007
     21          6           0       -2.711839    0.303439    0.874304
     22          6           0        0.723132   -0.254511   -0.157358
     23          6           0        1.455100    0.139269   -1.271183
     24          6           0        2.835474    0.189026   -1.248345
     25          6           0        3.533851   -0.167155   -0.099346
     26          6           0        2.816884   -0.576029    1.017292
     27          6           0        1.440375   -0.614881    0.973954
     28          9           0        0.793924   -1.032876    2.059717
     29          6           0        5.010844   -0.118157   -0.063901
     30          6           0        5.759283   -1.108458    0.553870
     31          6           0        7.128820   -0.996810    0.543494
     32          9           0        7.858990   -1.947137    1.132624
     33          6           0        7.755937    0.078271   -0.070992
     34          7           0        7.031408    1.025643   -0.652597
     35          6           0        5.714934    0.930563   -0.647928
     36          6           0        9.230716    0.201664   -0.105782
     37          6           0       10.042857   -0.857396   -0.495881
     38          6           0       11.417601   -0.721808   -0.560981
     39          6           0       12.006152    0.485760   -0.222977
     40          6           0       11.221301    1.550397    0.180897
     41          6           0        9.851986    1.394355    0.234535
     42          9           0        9.116172    2.423614    0.652151
     43          1           0      -13.072898   -0.227038    0.356064
     44          1           0      -11.964838    1.792900   -0.683269
     45          1           0      -11.612083   -2.086800    1.145050
     46          1           0       -7.729857   -2.108407   -0.619604
     47          1           0       -5.264869   -2.214294   -0.745468
     48          1           0       -5.076795    1.836705    0.692121
     49          1           0       -3.388127   -1.284955   -2.028355
     50          1           0       -3.175882    0.762689    1.747065
     51          1           0        0.925040    0.414490   -2.178893
     52          1           0        3.377040    0.489378   -2.141568
     53          1           0        3.311132   -0.854061    1.944300
     54          1           0        5.299488   -1.970978    1.029684
     55          1           0        5.174908    1.748526   -1.124608
     56          1           0        9.579716   -1.804311   -0.760881
     57          1           0       12.030493   -1.561648   -0.877609
     58          1           0       13.086431    0.601771   -0.270094
     59          1           0       11.649238    2.508154    0.463226
 ---------------------------------------------------------------------

 The electronic state is 1-A.
 Alpha  occ. eigenvalues --  -24.56554 -24.56109 -24.56087 -24.55539 -24.55005
 Alpha  occ. eigenvalues --  -24.54231 -14.28129 -14.27971 -14.27546 -10.27540
 Alpha  occ. eigenvalues --  -10.27393 -10.27126 -10.27101 -10.26900 -10.26003
 Alpha  occ. eigenvalues --  -10.23445 -10.23413 -10.22948 -10.21830 -10.21816
 Alpha  occ. eigenvalues --  -10.21447 -10.21032 -10.20957 -10.20777 -10.20750
 Alpha  occ. eigenvalues --  -10.20743 -10.20664 -10.20415 -10.19972 -10.19955
 Alpha  occ. eigenvalues --  -10.19909 -10.19500 -10.19423 -10.19127 -10.19064
 Alpha  occ. eigenvalues --  -10.18831 -10.18797 -10.18665 -10.18623 -10.18602
 Alpha  occ. eigenvalues --  -10.17881 -10.17673  -1.41428  -1.41322  -1.40971
 Alpha  occ. eigenvalues --   -1.40324  -1.40080  -1.39255  -1.16282  -1.16205
 Alpha  occ. eigenvalues --   -1.15842  -1.08714  -1.08253  -1.06752  -1.03271
 Alpha  occ. eigenvalues --   -1.02215  -1.01109  -0.99219  -0.98749  -0.98028
 Alpha  occ. eigenvalues --   -0.95524  -0.94791  -0.94704  -0.93682  -0.93091
 Alpha  occ. eigenvalues --   -0.91092  -0.86046  -0.83877  -0.83543  -0.82467
 Alpha  occ. eigenvalues --   -0.82101  -0.81198  -0.79859  -0.79241  -0.78823
 Alpha  occ. eigenvalues --   -0.77950  -0.77324  -0.76880  -0.73029  -0.72374
 Alpha  occ. eigenvalues --   -0.71575  -0.70775  -0.69824  -0.69486  -0.69057
 Alpha  occ. eigenvalues --   -0.68878  -0.68219  -0.67170  -0.66952  -0.66315
 Alpha  occ. eigenvalues --   -0.65930  -0.65611  -0.64963  -0.64367  -0.64058
 Alpha  occ. eigenvalues --   -0.63628  -0.63496  -0.63437  -0.62913  -0.62761
 Alpha  occ. eigenvalues --   -0.62158  -0.61918  -0.60291  -0.59803  -0.59176
 Alpha  occ. eigenvalues --   -0.59009  -0.58042  -0.57783  -0.57243  -0.57023
 Alpha  occ. eigenvalues --   -0.56698  -0.56444  -0.56279  -0.56117  -0.55856
 Alpha  occ. eigenvalues --   -0.55690  -0.54912  -0.54609  -0.54115  -0.53203
 Alpha  occ. eigenvalues --   -0.52907  -0.52535  -0.52007  -0.51715  -0.51222
 Alpha  occ. eigenvalues --   -0.51072  -0.50554  -0.49444  -0.49019  -0.48062
 Alpha  occ. eigenvalues --   -0.44528  -0.43270  -0.42319  -0.40887  -0.40395
 Alpha  occ. eigenvalues --   -0.40221  -0.39979  -0.39865  -0.39175  -0.37739
 Alpha  occ. eigenvalues --   -0.37620  -0.37027  -0.36336  -0.34833  -0.33274
 Alpha virt. eigenvalues --    0.00394   0.02417   0.04604   0.05839   0.06155
 Alpha virt. eigenvalues --    0.06636   0.07281   0.07378   0.07957   0.08671
 Alpha virt. eigenvalues --    0.10583   0.12216   0.15701   0.16008   0.16349

  Beta  occ. eigenvalues --  -24.56554 -24.56109 -24.56087 -24.55539 -24.55005
  Beta  occ. eigenvalues --  -24.54231 -14.28129 -14.27971 -14.27546 -10.27540
  Beta  occ. eigenvalues --  -10.27393 -10.27126 -10.27101 -10.26900 -10.26003
  Beta  occ. eigenvalues --  -10.23445 -10.23413 -10.22948 -10.21830 -10.21816
  Beta  occ. eigenvalues --  -10.21447 -10.21032 -10.20957 -10.20777 -10.20750
  Beta  occ. eigenvalues --  -10.20743 -10.20664 -10.20415 -10.19972 -10.19955
  Beta  occ. eigenvalues --  -10.19909 -10.19500 -10.19423 -10.19127 -10.19064
  Beta  occ. eigenvalues --  -10.18831 -10.18797 -10.18665 -10.18623 -10.18602
  Beta  occ. eigenvalues --  -10.17881 -10.17673  -1.41428  -1.41322  -1.40971
  Beta  occ. eigenvalues --   -1.40324  -1.40080  -1.39255  -1.16282  -1.16205
  Beta  occ. eigenvalues --   -1.15842  -1.08714  -1.08253  -1.06752  -1.03271
  Beta  occ. eigenvalues --   -1.02215  -1.01109  -0.99219  -0.98749  -0.98028
  Beta  occ. eigenvalues --   -0.95524  -0.94791  -0.94704  -0.93682  -0.93091
  Beta  occ. eigenvalues --   -0.91092  -0.86046  -0.83877  -0.83543  -0.82467
  Beta  occ. eigenvalues --   -0.82101  -0.81198  -0.79859  -0.79241  -0.78823
  Beta  occ. eigenvalues --   -0.77950  -0.77324  -0.76880  -0.73029  -0.72374
  Beta  occ. eigenvalues --   -0.71575  -0.70775  -0.69824  -0.69486  -0.69057
  Beta  occ. eigenvalues --   -0.68878  -0.68219  -0.67170  -0.66952  -0.66315
  Beta  occ. eigenvalues --   -0.65930  -0.65611  -0.64963  -0.64367  -0.64058
  Beta  occ. eigenvalues --   -0.63628  -0.63496  -0.63437  -0.62913  -0.62761
  Beta  occ. eigenvalues --   -0.62158  -0.61918  -0.60291  -0.59803  -0.59176
  Beta  occ. eigenvalues --   -0.59009  -0.58042  -0.57783  -0.57243  -0.57023
  Beta  occ. eigenvalues --   -0.56698  -0.56444  -0.56279  -0.56117  -0.55856
  Beta  occ. eigenvalues --   -0.55690  -0.54912  -0.54609  -0.54115  -0.53203
  Beta  occ. eigenvalues --   -0.52907  -0.52535  -0.52007  -0.51715  -0.51222
  Beta  occ. eigenvalues --   -0.51072  -0.50554  -0.49444  -0.49019  -0.48062
  Beta  occ. eigenvalues --   -0.44528  -0.43270  -0.42319  -0.40887  -0.40395
  Beta  occ. eigenvalues --   -0.40221  -0.39979  -0.39865  -0.39175  -0.37739
  Beta  occ. eigenvalues --   -0.37620  -0.37027  -0.36336  -0.34833  -0.33274
  Beta virt. eigenvalues --    0.00394   0.02417   0.04604   0.05839   0.06155
  Beta virt. eigenvalues --    0.06636   0.07281   0.07378   0.07957   0.08671
  Beta virt. eigenvalues --    0.10583   0.12216   0.15701   0.16008   0.16349

 Mulliken charges and spin densities:
               1          2
     1  C   -0.066339   0.000000
     2  C    0.036614   0.000000
     3  C    0.126278  -0.000000
     4  F   -0.123827   0.000000
     5  C    0.013452   0.000000
     6  N   -0.198542  -0.000000
     7  C    0.077037   0.000000
     8  C   -0.070613  -0.000000
     9  C    0.044233   0.000000
    10  C   -0.011857  -0.000000
    11  C   -0.003202   0.000000
    12  C   -0.017825  -0.000000
    13  C    0.139059   0.000000
    14  F   -0.125738  -0.000000
    15  C   -0.079162  -0.000000
    16  C    0.052914   0.000000
    17  C    0.125732   0.000000
    18  F   -0.129696   0.000000
    19  C    0.018189  -0.000000
    20  N   -0.181709   0.000000
    21  C    0.088669   0.000000
    22  C   -0.076920   0.000000
    23  C    0.039568  -0.000000
    24  C   -0.012326   0.000000
    25  C   -0.001746   0.000000
    26  C   -0.023761  -0.000000
    27  C    0.145791   0.000000
    28  F   -0.116739   0.000000
    29  C   -0.079868  -0.000000
    30  C    0.051675   0.000000
    31  C    0.126598  -0.000000
    32  F   -0.129428   0.000000
    33  C    0.020828  -0.000000
    34  N   -0.181310   0.000000
    35  C    0.087642   0.000000
    36  C   -0.080253  -0.000000
    37  C    0.024132  -0.000000
    38  C   -0.009964   0.000000
    39  C    0.003141  -0.000000
    40  C   -0.026402  -0.000000
    41  C    0.133558   0.000000
    42  F   -0.121216  -0.000000
    43  H    0.034736   0.000000
    44  H    0.046344  -0.000000
    45  H    0.037466   0.000000
    46  H    0.024255   0.000000
    47  H    0.017069   0.000000
    48  H    0.032366   0.000000
    49  H    0.038013  -0.000000
    50  H    0.036876   0.000000
    51  H    0.023957  -0.000000
    52  H    0.018449   0.000000
    53  H    0.029865   0.000000
    54  H    0.037619  -0.000000
    55  H    0.034929  -0.000000
    56  H    0.019870   0.000000
    57  H    0.020748   0.000000
    58  H    0.026602   0.000000
    59  H    0.034165  -0.000000
 Sum of Mulliken charges =  -0.00000   0.00000

 Dipole moment (field-independent basis, Debye):
    X=             -3.5558    Y=             -1.8608    Z=             -2.1249  Tot=              4.5411
 Quadrupole moment (field-independent basis, Debye-Ang):
   XX=           -157.8652   YY=           -230.9999   ZZ=           -233.9123
   XY=             -5.4411   XZ=              3.4232   YZ=              1.6951

 Normal termination of Gaussian 16 at Sat Jul 25 12:17:57 2020.
