 Gaussian 16, Revision A.03,
 Gaussian 16:  EM64L-G16RevA.03 25-Dec-2016

 ---------------------------------------------------------------
 #P uLC-wPBE/cc-pVDZ iop(3/107=0190700000, 3/108=0190700000) opt
 ---------------------------------------------------------------

 ----------------
 H23 C30 S3 N3 O3
 ----------------
 Symbolic Z-matrix:
 Charge =  0 Multiplicity = 1

 SCF Done:  E(ULC-wPBE) =  -2739.69584989     A.U. after   17 cycles
 SCF Done:  E(ULC-wPBE) =  -2739.76645174     A.U. after   15 cycles
 SCF Done:  E(ULC-wPBE) =  -2739.81251331     A.U. after   17 cycles
 SCF Done:  E(ULC-wPBE) =  -2739.82425854     A.U. after   15 cycles
 SCF Done:  E(ULC-wPBE) =  -2739.83020811     A.U. after   16 cycles
 SCF Done:  E(ULC-wPBE) =  -2739.83521389     A.U. after   17 cycles
 SCF Done:  E(ULC-wPBE) =  -2739.83948947     A.U. after   17 cycles
 SCF Done:  E(ULC-wPBE) =  -2739.84147449     A.U. after   16 cycles
 SCF Done:  E(ULC-wPBE) =  -2739.84161894     A.U. after   15 cycles
 SCF Done:  E(ULC-wPBE) =  -2739.84185546     A.U. after   14 cycles
 SCF Done:  E(ULC-wPBE) =  -2739.84189782     A.U. after   13 cycles
 SCF Done:  E(ULC-wPBE) =  -2739.84190684     A.U. after   12 cycles
 SCF Done:  E(ULC-wPBE) =  -2739.84191232     A.U. after    9 cycles
 SCF Done:  E(ULC-wPBE) =  -2739.84191369     A.U. after   11 cycles
 SCF Done:  E(ULC-wPBE) =  -2739.84191400     A.U. after    8 cycles
 SCF Done:  E(ULC-wPBE) =  -2739.84191413     A.U. after    7 cycles
 SCF Done:  E(ULC-wPBE) =  -2739.84191412     A.U. after    8 cycles
 SCF Done:  E(ULC-wPBE) =  -2739.84191414     A.U. after    6 cycles
 Optimization completed.
    -- Stationary point found.

                         Standard orientation:
 ---------------------------------------------------------------------
 Center     Atomic      Atomic             Coordinates (Angstroms)
 Number     Number       Type             X           Y           Z
 ---------------------------------------------------------------------
      1          6           0       11.242042    0.962793    0.064750
      2          6           0       10.990401   -0.278845   -0.527605
      3          6           0        9.676896   -0.739495   -0.625667
      4          6           0        8.594178    0.017564   -0.141686
      5          6           0        8.866674    1.273381    0.455756
      6          8           0        7.781705    1.967719    0.909524
      7          6           0        7.994637    3.227825    1.532697
      8          6           0       10.186983    1.739120    0.555997
      9          6           0        7.237773   -0.544930   -0.284280
     10          7           0        7.031451   -1.725556   -0.835805
     11          6           0        5.702823   -2.039168   -0.859812
     12          6           0        4.832968   -1.107358   -0.327190
     13         16           0        5.762303    0.250964    0.246146
     14          6           0        3.366401   -1.175589   -0.225367
     15          6           0        2.715969   -2.419732   -0.115966
     16          6           0        1.327195   -2.480591   -0.040724
     17          6           0        0.530716   -1.321115   -0.059288
     18          6           0        1.188526   -0.070394   -0.159839
     19          8           0        0.380873    1.029913   -0.175359
     20          6           0        0.983662    2.314914   -0.264440
     21          6           0        2.585205   -0.004565   -0.245485
     22          6           0       -0.931075   -1.478638    0.031885
     23          7           0       -1.495067   -2.666997    0.137896
     24          6           0       -2.854962   -2.568039    0.207286
     25          6           0       -3.391042   -1.295659    0.155345
     26         16           0       -2.084159   -0.151213    0.015696
     27          6           0       -4.806235   -0.894163    0.202834
     28          6           0       -5.748425   -1.682165    0.891000
     29          6           0       -7.089795   -1.309150    0.915525
     30          6           0       -7.548808   -0.144305    0.275038
     31          6           0       -6.596875    0.651293   -0.408760
     32          8           0       -7.082255    1.771811   -1.018099
     33          6           0       -6.176144    2.609359   -1.725086
     34          6           0       -5.247771    0.275226   -0.444780
     35          6           0       -8.985385    0.177724    0.356909
     36          7           0       -9.832468   -0.595774    1.007702
     37          6           0      -11.107290   -0.098933    0.948250
     38          6           0      -11.263945    1.071487    0.246877
     39         16           0       -9.739461    1.589024   -0.377465
     40          1           0       12.269919    1.339889    0.150096
     41          1           0       11.816491   -0.889480   -0.913311
     42          1           0        9.442872   -1.708342   -1.083130
     43          1           0        8.625316    3.131522    2.440592
     44          1           0        6.994716    3.593245    1.821354
     45          1           0        8.463277    3.953259    0.835779
     46          1           0       10.398524    2.709650    1.018066
     47          1           0        5.388392   -2.985809   -1.315581
     48          1           0        3.305439   -3.343348   -0.066769
     49          1           0        0.807418   -3.442140    0.047531
     50          1           0        1.552633    2.433319   -1.209751
     51          1           0        1.657153    2.508519    0.595863
     52          1           0        0.151543    3.038609   -0.246205
     53          1           0        3.083721    0.965567   -0.350238
     54          1           0       -3.452016   -3.485585    0.272953
     55          1           0       -5.422467   -2.580710    1.428978
     56          1           0       -7.834521   -1.911890    1.449071
     57          1           0       -5.390216    3.015377   -1.055119
     58          1           0       -5.696864    2.070290   -2.568302
     59          1           0       -6.783173    3.440519   -2.121523
     60          1           0       -4.523395    0.882218   -0.999351
     61          1           0      -11.916907   -0.643723    1.448495
     62          1           0      -12.178565    1.644273    0.068354
 ---------------------------------------------------------------------

 The electronic state is 1-A.
 Alpha  occ. eigenvalues --  -88.21039 -88.20959 -88.20703 -18.92405 -18.92354
 Alpha  occ. eigenvalues --  -18.92148 -14.10171 -14.10106 -14.09775 -10.07917
 Alpha  occ. eigenvalues --  -10.07789 -10.07687 -10.07420 -10.07406 -10.07153
 Alpha  occ. eigenvalues --  -10.07066 -10.06999 -10.06638 -10.03942 -10.03862
 Alpha  occ. eigenvalues --  -10.03555 -10.03367 -10.03233 -10.03138 -10.02925
 Alpha  occ. eigenvalues --  -10.02862 -10.02677 -10.02676 -10.02458 -10.01867
 Alpha  occ. eigenvalues --  -10.01718 -10.01628 -10.01528 -10.01350 -10.01223
 Alpha  occ. eigenvalues --  -10.01141 -10.00985 -10.00814 -10.00809  -7.81355
 Alpha  occ. eigenvalues --   -7.81277  -7.81020  -5.83356  -5.83278  -5.83014
 Alpha  occ. eigenvalues --   -5.82905  -5.82827  -5.82560  -5.82559  -5.82482
 Alpha  occ. eigenvalues --   -5.82244  -1.10609  -1.10545  -1.10365  -0.98984
 Alpha  occ. eigenvalues --   -0.98908  -0.98499  -0.90437  -0.90041  -0.89528
 Alpha  occ. eigenvalues --   -0.85453  -0.84903  -0.83113  -0.82569  -0.81922
 Alpha  occ. eigenvalues --   -0.81098  -0.80005  -0.79784  -0.79682  -0.77703
 Alpha  occ. eigenvalues --   -0.76698  -0.76272  -0.75221  -0.74568  -0.73331
 Alpha  occ. eigenvalues --   -0.69310  -0.68001  -0.67087  -0.65615  -0.65200
 Alpha  occ. eigenvalues --   -0.64761  -0.62879  -0.62359  -0.62064  -0.60974
 Alpha  occ. eigenvalues --   -0.60682  -0.60268  -0.58747  -0.57886  -0.57152
 Alpha  occ. eigenvalues --   -0.55278  -0.54903  -0.54478  -0.54069  -0.53533
 Alpha  occ. eigenvalues --   -0.53303  -0.53276  -0.53264  -0.53057  -0.52505
 Alpha  occ. eigenvalues --   -0.51300  -0.50625  -0.50133  -0.50068  -0.49078
 Alpha  occ. eigenvalues --   -0.48289  -0.48144  -0.47938  -0.47634  -0.47446
 Alpha  occ. eigenvalues --   -0.47316  -0.46889  -0.46258  -0.46196  -0.45880
 Alpha  occ. eigenvalues --   -0.45286  -0.44454  -0.44242  -0.43902  -0.43781
 Alpha  occ. eigenvalues --   -0.43315  -0.42288  -0.41641  -0.41306  -0.40997
 Alpha  occ. eigenvalues --   -0.40552  -0.40209  -0.39767  -0.39647  -0.39034
 Alpha  occ. eigenvalues --   -0.38392  -0.38098  -0.37927  -0.36877  -0.35585
 Alpha  occ. eigenvalues --   -0.33792  -0.33625  -0.33340  -0.33040  -0.32188
 Alpha  occ. eigenvalues --   -0.32133  -0.31961  -0.30493  -0.30139  -0.30037
 Alpha  occ. eigenvalues --   -0.28904  -0.27008  -0.25082
 Alpha virt. eigenvalues --   -0.02449  -0.00399   0.01769   0.04829   0.04968
 Alpha virt. eigenvalues --    0.05049   0.05556   0.07316   0.08412   0.09017
 Alpha virt. eigenvalues --    0.09481   0.09855   0.10791   0.11365   0.11525

  Beta  occ. eigenvalues --  -88.21039 -88.20959 -88.20703 -18.92405 -18.92354
  Beta  occ. eigenvalues --  -18.92148 -14.10171 -14.10106 -14.09775 -10.07917
  Beta  occ. eigenvalues --  -10.07789 -10.07687 -10.07420 -10.07406 -10.07153
  Beta  occ. eigenvalues --  -10.07066 -10.06999 -10.06638 -10.03942 -10.03862
  Beta  occ. eigenvalues --  -10.03555 -10.03367 -10.03233 -10.03138 -10.02925
  Beta  occ. eigenvalues --  -10.02862 -10.02677 -10.02676 -10.02458 -10.01867
  Beta  occ. eigenvalues --  -10.01718 -10.01628 -10.01528 -10.01350 -10.01223
  Beta  occ. eigenvalues --  -10.01141 -10.00985 -10.00814 -10.00809  -7.81355
  Beta  occ. eigenvalues --   -7.81277  -7.81020  -5.83356  -5.83278  -5.83014
  Beta  occ. eigenvalues --   -5.82905  -5.82827  -5.82560  -5.82559  -5.82482
  Beta  occ. eigenvalues --   -5.82244  -1.10609  -1.10545  -1.10365  -0.98984
  Beta  occ. eigenvalues --   -0.98908  -0.98499  -0.90437  -0.90041  -0.89528
  Beta  occ. eigenvalues --   -0.85453  -0.84903  -0.83113  -0.82569  -0.81922
  Beta  occ. eigenvalues --   -0.81098  -0.80005  -0.79784  -0.79682  -0.77703
  Beta  occ. eigenvalues --   -0.76698  -0.76272  -0.75221  -0.74568  -0.73331
  Beta  occ. eigenvalues --   -0.69310  -0.68001  -0.67087  -0.65615  -0.65200
  Beta  occ. eigenvalues --   -0.64761  -0.62879  -0.62359  -0.62064  -0.60974
  Beta  occ. eigenvalues --   -0.60682  -0.60268  -0.58747  -0.57886  -0.57152
  Beta  occ. eigenvalues --   -0.55278  -0.54903  -0.54478  -0.54069  -0.53533
  Beta  occ. eigenvalues --   -0.53303  -0.53276  -0.53264  -0.53057  -0.52505
  Beta  occ. eigenvalues --   -0.51300  -0.50625  -0.50133  -0.50068  -0.49078
  Beta  occ. eigenvalues --   -0.48289  -0.48144  -0.47938  -0.47634  -0.47446
  Beta  occ. eigenvalues --   -0.47316  -0.46889  -0.46258  -0.46196  -0.45880
  Beta  occ. eigenvalues --   -0.45286  -0.44454  -0.44242  -0.43902  -0.43781
  Beta  occ. eigenvalues --   -0.43315  -0.42288  -0.41641  -0.41306  -0.40997
  Beta  occ. eigenvalues --   -0.40552  -0.40209  -0.39767  -0.39647  -0.39034
  Beta  occ. eigenvalues --   -0.38392  -0.38098  -0.37927  -0.36877  -0.35585
  Beta  occ. eigenvalues --   -0.33792  -0.33625  -0.33340  -0.33040  -0.32188
  Beta  occ. eigenvalues --   -0.32133  -0.31961  -0.30493  -0.30139  -0.30037
  Beta  occ. eigenvalues --   -0.28904  -0.27008  -0.25082
  Beta virt. eigenvalues --   -0.02449  -0.00399   0.01769   0.04829   0.04968
  Beta virt. eigenvalues --    0.05049   0.05556   0.07316   0.08412   0.09017
  Beta virt. eigenvalues --    0.09481   0.09855   0.10791   0.11365   0.11525

 Mulliken charges and spin densities:
               1          2
     1  C    0.029763   0.000000
     2  C    0.038454   0.000000
     3  C    0.050622   0.000000
     4  C   -0.018744  -0.000000
     5  C    0.084359  -0.000000
     6  O   -0.256077   0.000000
     7  C    0.066034  -0.000000
     8  C   -0.020670  -0.000000
     9  C    0.022113   0.000000
    10  N   -0.184685   0.000000
    11  C    0.132388  -0.000000
    12  C   -0.216929   0.000000
    13  S    0.146226  -0.000000
    14  C    0.071167   0.000000
    15  C    0.011603  -0.000000
    16  C    0.060924   0.000000
    17  C   -0.002999  -0.000000
    18  C    0.089678  -0.000000
    19  O   -0.256637  -0.000000
    20  C    0.067335   0.000000
    21  C   -0.032351   0.000000
    22  C    0.017013   0.000000
    23  N   -0.185618  -0.000000
    24  C    0.132358  -0.000000
    25  C   -0.215748  -0.000000
    26  S    0.146321   0.000000
    27  C    0.069832   0.000000
    28  C    0.010281  -0.000000
    29  C    0.059785   0.000000
    30  C    0.003766  -0.000000
    31  C    0.092715  -0.000000
    32  O   -0.256716   0.000000
    33  C    0.066997   0.000000
    34  C   -0.033428   0.000000
    35  C   -0.003090   0.000000
    36  N   -0.189010  -0.000000
    37  C    0.127323   0.000000
    38  C   -0.175151   0.000000
    39  S    0.158592   0.000000
    40  H   -0.015795  -0.000000
    41  H   -0.017009  -0.000000
    42  H   -0.018281  -0.000000
    43  H    0.050204   0.000000
    44  H    0.052782   0.000000
    45  H    0.048800   0.000000
    46  H   -0.014487  -0.000000
    47  H    0.000746   0.000000
    48  H   -0.024790  -0.000000
    49  H   -0.018235  -0.000000
    50  H    0.051702  -0.000000
    51  H    0.049865  -0.000000
    52  H    0.052354  -0.000000
    53  H   -0.017712   0.000000
    54  H    0.000752   0.000000
    55  H   -0.025432   0.000000
    56  H   -0.018545   0.000000
    57  H    0.048516  -0.000000
    58  H    0.051852  -0.000000
    59  H    0.053959  -0.000000
    60  H   -0.018076   0.000000
    61  H   -0.002083   0.000000
    62  H    0.021116   0.000000
 Sum of Mulliken charges =  -0.00000   0.00000

 Dipole moment (field-independent basis, Debye):
    X=              2.3810    Y=              6.8012    Z=             -0.4111  Tot=              7.2176
 Quadrupole moment (field-independent basis, Debye-Ang):
   XX=           -223.3816   YY=           -221.5001   ZZ=           -246.5135
   XY=             10.3178   XZ=             17.2296   YZ=             -0.5874

 Normal termination of Gaussian 16 at Fri Jul 24 13:23:09 2020.
