 Gaussian 16, Revision A.03,
 Gaussian 16:  EM64L-G16RevA.03 25-Dec-2016

 ---------------------------------------------------------------
 #P uLC-wPBE/cc-pVDZ iop(3/107=0372300000, 3/108=0372300000) opt
 ---------------------------------------------------------------

 ----------------
 H37 C50 S5 N5 O5
 ----------------
 Symbolic Z-matrix:
 Charge =  0 Multiplicity = 1

 SCF Done:  E(ULC-wPBE) =  -4565.93380358     A.U. after   18 cycles
 SCF Done:  E(ULC-wPBE) =  -4566.01021471     A.U. after   14 cycles
 SCF Done:  E(ULC-wPBE) =  -4566.06982815     A.U. after   16 cycles
 SCF Done:  E(ULC-wPBE) =  -4566.08960525     A.U. after   14 cycles
 SCF Done:  E(ULC-wPBE) =  -4566.09957506     A.U. after   16 cycles
 SCF Done:  E(ULC-wPBE) =  -4566.10640580     A.U. after   17 cycles
 SCF Done:  E(ULC-wPBE) =  -4566.11109376     A.U. after   18 cycles
 SCF Done:  E(ULC-wPBE) =  -4566.11315669     A.U. after   14 cycles
 SCF Done:  E(ULC-wPBE) =  -4566.11395093     A.U. after   15 cycles
 SCF Done:  E(ULC-wPBE) =  -4566.11430449     A.U. after   13 cycles
 SCF Done:  E(ULC-wPBE) =  -4566.11437504     A.U. after   12 cycles
 SCF Done:  E(ULC-wPBE) =  -4566.11440637     A.U. after   11 cycles
 SCF Done:  E(ULC-wPBE) =  -4566.11442334     A.U. after   11 cycles
 SCF Done:  E(ULC-wPBE) =  -4566.11443057     A.U. after   11 cycles
 SCF Done:  E(ULC-wPBE) =  -4566.11443381     A.U. after   11 cycles
 SCF Done:  E(ULC-wPBE) =  -4566.11443459     A.U. after   10 cycles
 SCF Done:  E(ULC-wPBE) =  -4566.11443512     A.U. after    8 cycles
 SCF Done:  E(ULC-wPBE) =  -4566.11443523     A.U. after    8 cycles
 SCF Done:  E(ULC-wPBE) =  -4566.11443534     A.U. after    6 cycles
 SCF Done:  E(ULC-wPBE) =  -4566.11443539     A.U. after    6 cycles
 Optimization completed.
    -- Stationary point found.

                         Standard orientation:
 ---------------------------------------------------------------------
 Center     Atomic      Atomic             Coordinates (Angstroms)
 Number     Number       Type             X           Y           Z
 ---------------------------------------------------------------------
      1          6           0      -19.332445    1.103151   -0.614942
      2          6           0      -18.986596   -0.165318   -0.166998
      3          6           0      -17.648033   -0.479175    0.018051
      4          6           0      -16.639702    0.451613   -0.235819
      5          6           0      -17.006180    1.730942   -0.688790
      6          8           0      -15.989374    2.596192   -0.920451
      7          6           0      -16.288914    3.895861   -1.379863
      8          6           0      -18.349898    2.051193   -0.876259
      9          6           0      -15.241353    0.034862   -0.011952
     10          7           0      -14.951315   -1.167748    0.407603
     11          6           0      -13.606233   -1.333919    0.542511
     12          6           0      -12.826189   -0.257181    0.227781
     13         16           0      -13.850593    1.039083   -0.268267
     14          6           0      -11.360523   -0.139164    0.281806
     15          6           0      -10.738365    1.073171    0.586621
     16          6           0       -9.356716    1.148721    0.642518
     17          6           0       -8.550676    0.035358    0.405336
     18          6           0       -9.180814   -1.183356    0.098563
     19          8           0       -8.361267   -2.236074   -0.132553
     20          6           0       -8.927075   -3.489495   -0.450104
     21          6           0      -10.568505   -1.263375    0.032261
     22          6           0       -7.088476    0.204432    0.488022
     23          7           0       -6.554883    1.362601    0.773135
     24          6           0       -5.195302    1.287962    0.795814
     25          6           0       -4.648674    0.064771    0.526719
     26         16           0       -5.925677   -1.055403    0.226415
     27          6           0       -3.228113   -0.316271    0.486355
     28          6           0       -2.806467   -1.595845    0.852890
     29          6           0       -1.460451   -1.919458    0.816411
     30          6           0       -0.493378   -0.993890    0.424363
     31          6           0       -0.921946    0.293233    0.055924
     32          8           0        0.048018    1.158541   -0.325714
     33          6           0       -0.316442    2.460520   -0.729404
     34          6           0       -2.273925    0.621408    0.081476
     35          6           0        0.916786   -1.423979    0.415866
     36          7           0        1.256934   -2.639439    0.751476
     37          6           0        2.605257   -2.816876    0.673341
     38          6           0        3.337921   -1.734811    0.274708
     39         16           0        2.261320   -0.419654   -0.024107
     40          6           0        4.796059   -1.631654    0.107611
     41          6           0        5.540702   -2.742080   -0.295770
     42          6           0        6.915127   -2.642107   -0.430947
     43          6           0        7.593146   -1.448082   -0.183439
     44          6           0        6.839009   -0.330911    0.214152
     45          8           0        7.534922    0.807994    0.446265
     46          6           0        6.835154    1.970024    0.834309
     47          6           0        5.458220   -0.427106    0.359379
     48          6           0        9.056924   -1.430976   -0.359091
     49          7           0        9.705645   -2.495945   -0.746998
     50          6           0       11.043045   -2.254914   -0.842717
     51          6           0       11.456421   -0.991602   -0.527089
     52         16           0       10.076005   -0.052911   -0.089935
     53          6           0       12.824820   -0.450576   -0.532786
     54          6           0       13.764832   -0.918055   -1.453359
     55          6           0       15.056273   -0.417980   -1.438588
     56          6           0       15.455555    0.560195   -0.527872
     57          6           0       14.504084    1.033746    0.391431
     58          8           0       14.931999    1.981297    1.259531
     59          6           0       14.027432    2.496120    2.211829
     60          6           0       13.206843    0.529328    0.387292
     61          6           0       16.850067    1.039114   -0.587652
     62          7           0       17.691678    0.563225   -1.465054
     63          6           0       18.920461    1.146190   -1.340768
     64          6           0       19.031920    2.080773   -0.359526
     65         16           0       17.534040    2.247640    0.454393
     66          1           0      -20.381566    1.367754   -0.766203
     67          1           0      -19.757128   -0.910494    0.038638
     68          1           0      -17.339712   -1.465117    0.368861
     69          1           0      -16.905361    4.448665   -0.651891
     70          1           0      -15.325265    4.405841   -1.496911
     71          1           0      -16.805403    3.870011   -2.353558
     72          1           0      -18.638095    3.041811   -1.227158
     73          1           0      -13.225317   -2.287076    0.912578
     74          1           0      -11.339633    1.959499    0.798571
     75          1           0       -8.854975    2.087066    0.882766
     76          1           0       -8.083682   -4.176977   -0.584861
     77          1           0       -9.509558   -3.443105   -1.384825
     78          1           0       -9.569672   -3.859133    0.365805
     79          1           0      -11.052345   -2.200879   -0.238769
     80          1           0       -4.620613    2.180425    1.048343
     81          1           0       -3.534368   -2.338661    1.185167
     82          1           0       -1.114034   -2.913719    1.101717
     83          1           0       -0.976072    2.438742   -1.612349
     84          1           0       -0.812874    3.011380    0.086434
     85          1           0        0.618685    2.969544   -0.991503
     86          1           0       -2.605946    1.608649   -0.237208
     87          1           0        3.030336   -3.783028    0.948856
     88          1           0        5.037971   -3.682903   -0.525000
     89          1           0        7.511759   -3.498656   -0.747811
     90          1           0        7.591590    2.755642    0.947939
     91          1           0        6.315075    1.825688    1.795633
     92          1           0        6.106983    2.276988    0.065621
     93          1           0        4.881146    0.435759    0.691725
     94          1           0       11.709256   -3.067406   -1.136050
     95          1           0       13.477158   -1.661924   -2.197957
     96          1           0       15.802960   -0.770376   -2.151576
     97          1           0       14.587942    3.239469    2.791102
     98          1           0       13.663882    1.707010    2.890494
     99          1           0       13.167880    2.987429    1.726700
    100          1           0       12.479881    0.882345    1.118710
    101          1           0       19.723964    0.842256   -2.012831
    102          1           0       19.904849    2.667742   -0.080575
 ---------------------------------------------------------------------

 The electronic state is 1-A.
 Alpha  occ. eigenvalues --  -88.31106 -88.31053 -88.30966 -88.30952 -88.30616
 Alpha  occ. eigenvalues --  -19.01741 -19.01666 -19.01607 -19.01454 -19.01378
 Alpha  occ. eigenvalues --  -14.19902 -14.19885 -14.19785 -14.19753 -14.19369
 Alpha  occ. eigenvalues --  -10.18355 -10.18275 -10.18273 -10.18015 -10.18004
 Alpha  occ. eigenvalues --  -10.17633 -10.17608 -10.17492 -10.17491 -10.17293
 Alpha  occ. eigenvalues --  -10.17241 -10.17096 -10.17082 -10.17062 -10.16968
 Alpha  occ. eigenvalues --  -10.14059 -10.14016 -10.13951 -10.13870 -10.13824
 Alpha  occ. eigenvalues --  -10.13756 -10.13743 -10.13518 -10.13387 -10.13276
 Alpha  occ. eigenvalues --  -10.13270 -10.13112 -10.12853 -10.12783 -10.12654
 Alpha  occ. eigenvalues --  -10.12583 -10.12558 -10.12431 -10.12302 -10.11879
 Alpha  occ. eigenvalues --  -10.11682 -10.11638 -10.11590 -10.11553 -10.11517
 Alpha  occ. eigenvalues --  -10.11445 -10.11413 -10.11384 -10.11216 -10.11200
 Alpha  occ. eigenvalues --  -10.10983 -10.10924 -10.10871 -10.10658 -10.10587
 Alpha  occ. eigenvalues --   -7.91783  -7.91727  -7.91644  -7.91626  -7.91300
 Alpha  occ. eigenvalues --   -5.93390  -5.93335  -5.93250  -5.93234  -5.92901
 Alpha  occ. eigenvalues --   -5.92869  -5.92810  -5.92729  -5.92709  -5.92515
 Alpha  occ. eigenvalues --   -5.92461  -5.92376  -5.92376  -5.92360  -5.92050
 Alpha  occ. eigenvalues --   -1.21264  -1.21195  -1.21138  -1.20975  -1.20922
 Alpha  occ. eigenvalues --   -1.10287  -1.10259  -1.10166  -1.10124  -1.09650
 Alpha  occ. eigenvalues --   -1.01606  -1.01366  -1.01127  -1.00886  -1.00307
 Alpha  occ. eigenvalues --   -0.96121  -0.95680  -0.95228  -0.94949  -0.93056
 Alpha  occ. eigenvalues --   -0.92537  -0.92273  -0.91939  -0.91400  -0.90919
 Alpha  occ. eigenvalues --   -0.89873  -0.89731  -0.89664  -0.89404  -0.89384
 Alpha  occ. eigenvalues --   -0.88087  -0.87059  -0.86264  -0.85697  -0.85360
 Alpha  occ. eigenvalues --   -0.84545  -0.84233  -0.83821  -0.83198  -0.82344
 Alpha  occ. eigenvalues --   -0.78404  -0.77459  -0.76720  -0.76072  -0.75809
 Alpha  occ. eigenvalues --   -0.74036  -0.73750  -0.73446  -0.73414  -0.72438
 Alpha  occ. eigenvalues --   -0.70815  -0.70479  -0.70153  -0.69927  -0.69834
 Alpha  occ. eigenvalues --   -0.68839  -0.68570  -0.68406  -0.68271  -0.68005
 Alpha  occ. eigenvalues --   -0.66014  -0.65731  -0.65373  -0.64976  -0.64397
 Alpha  occ. eigenvalues --   -0.62963  -0.62665  -0.62523  -0.61988  -0.61439
 Alpha  occ. eigenvalues --   -0.61351  -0.61096  -0.61006  -0.60903  -0.60841
 Alpha  occ. eigenvalues --   -0.60726  -0.60663  -0.60639  -0.60423  -0.60315
 Alpha  occ. eigenvalues --   -0.59363  -0.58865  -0.58089  -0.57437  -0.57387
 Alpha  occ. eigenvalues --   -0.57030  -0.56880  -0.56575  -0.56010  -0.55650
 Alpha  occ. eigenvalues --   -0.55545  -0.55184  -0.55115  -0.54913  -0.54756
 Alpha  occ. eigenvalues --   -0.54710  -0.54309  -0.54174  -0.54042  -0.53849
 Alpha  occ. eigenvalues --   -0.53368  -0.52763  -0.52665  -0.52408  -0.52216
 Alpha  occ. eigenvalues --   -0.52098  -0.51975  -0.51791  -0.51266  -0.50822
 Alpha  occ. eigenvalues --   -0.50580  -0.50352  -0.50013  -0.49899  -0.49693
 Alpha  occ. eigenvalues --   -0.49292  -0.48447  -0.48153  -0.47815  -0.47588
 Alpha  occ. eigenvalues --   -0.47338  -0.46720  -0.46658  -0.46310  -0.46011
 Alpha  occ. eigenvalues --   -0.45910  -0.45717  -0.45642  -0.45489  -0.45464
 Alpha  occ. eigenvalues --   -0.44867  -0.43941  -0.43823  -0.43582  -0.43458
 Alpha  occ. eigenvalues --   -0.43179  -0.42344  -0.41574  -0.40504  -0.39278
 Alpha  occ. eigenvalues --   -0.38235  -0.38065  -0.38032  -0.37991  -0.37902
 Alpha  occ. eigenvalues --   -0.37828  -0.37787  -0.37644  -0.37575  -0.37411
 Alpha  occ. eigenvalues --   -0.36994  -0.34834  -0.34359  -0.34270  -0.34059
 Alpha  occ. eigenvalues --   -0.34044  -0.33017  -0.32010  -0.30556  -0.29162
 Alpha  occ. eigenvalues --   -0.28221
 Alpha virt. eigenvalues --   -0.00753   0.00338   0.01751   0.03331   0.04547
 Alpha virt. eigenvalues --    0.07572   0.07683   0.07750   0.07952   0.07987
 Alpha virt. eigenvalues --    0.08400   0.09333   0.10671   0.11776   0.12617

  Beta  occ. eigenvalues --  -88.31106 -88.31053 -88.30966 -88.30952 -88.30616
  Beta  occ. eigenvalues --  -19.01741 -19.01666 -19.01607 -19.01454 -19.01378
  Beta  occ. eigenvalues --  -14.19902 -14.19885 -14.19785 -14.19753 -14.19369
  Beta  occ. eigenvalues --  -10.18355 -10.18275 -10.18273 -10.18015 -10.18004
  Beta  occ. eigenvalues --  -10.17633 -10.17608 -10.17492 -10.17491 -10.17293
  Beta  occ. eigenvalues --  -10.17241 -10.17096 -10.17082 -10.17062 -10.16968
  Beta  occ. eigenvalues --  -10.14059 -10.14016 -10.13951 -10.13870 -10.13824
  Beta  occ. eigenvalues --  -10.13756 -10.13743 -10.13518 -10.13387 -10.13276
  Beta  occ. eigenvalues --  -10.13270 -10.13112 -10.12853 -10.12783 -10.12654
  Beta  occ. eigenvalues --  -10.12583 -10.12558 -10.12431 -10.12302 -10.11879
  Beta  occ. eigenvalues --  -10.11682 -10.11638 -10.11590 -10.11553 -10.11517
  Beta  occ. eigenvalues --  -10.11445 -10.11413 -10.11384 -10.11216 -10.11200
  Beta  occ. eigenvalues --  -10.10983 -10.10924 -10.10871 -10.10658 -10.10587
  Beta  occ. eigenvalues --   -7.91783  -7.91727  -7.91644  -7.91626  -7.91300
  Beta  occ. eigenvalues --   -5.93390  -5.93335  -5.93250  -5.93234  -5.92901
  Beta  occ. eigenvalues --   -5.92869  -5.92810  -5.92729  -5.92709  -5.92515
  Beta  occ. eigenvalues --   -5.92461  -5.92376  -5.92376  -5.92360  -5.92050
  Beta  occ. eigenvalues --   -1.21264  -1.21195  -1.21138  -1.20975  -1.20922
  Beta  occ. eigenvalues --   -1.10287  -1.10259  -1.10166  -1.10124  -1.09650
  Beta  occ. eigenvalues --   -1.01606  -1.01366  -1.01127  -1.00886  -1.00307
  Beta  occ. eigenvalues --   -0.96121  -0.95680  -0.95228  -0.94949  -0.93056
  Beta  occ. eigenvalues --   -0.92537  -0.92273  -0.91939  -0.91400  -0.90919
  Beta  occ. eigenvalues --   -0.89873  -0.89731  -0.89664  -0.89404  -0.89384
  Beta  occ. eigenvalues --   -0.88087  -0.87059  -0.86264  -0.85697  -0.85360
  Beta  occ. eigenvalues --   -0.84545  -0.84233  -0.83821  -0.83198  -0.82344
  Beta  occ. eigenvalues --   -0.78404  -0.77459  -0.76720  -0.76072  -0.75809
  Beta  occ. eigenvalues --   -0.74036  -0.73750  -0.73446  -0.73414  -0.72438
  Beta  occ. eigenvalues --   -0.70815  -0.70479  -0.70153  -0.69927  -0.69834
  Beta  occ. eigenvalues --   -0.68839  -0.68570  -0.68406  -0.68271  -0.68005
  Beta  occ. eigenvalues --   -0.66014  -0.65731  -0.65373  -0.64976  -0.64397
  Beta  occ. eigenvalues --   -0.62963  -0.62665  -0.62523  -0.61988  -0.61439
  Beta  occ. eigenvalues --   -0.61351  -0.61096  -0.61006  -0.60903  -0.60841
  Beta  occ. eigenvalues --   -0.60726  -0.60663  -0.60639  -0.60423  -0.60315
  Beta  occ. eigenvalues --   -0.59363  -0.58865  -0.58089  -0.57437  -0.57387
  Beta  occ. eigenvalues --   -0.57030  -0.56880  -0.56575  -0.56010  -0.55650
  Beta  occ. eigenvalues --   -0.55545  -0.55184  -0.55115  -0.54913  -0.54756
  Beta  occ. eigenvalues --   -0.54710  -0.54309  -0.54174  -0.54042  -0.53849
  Beta  occ. eigenvalues --   -0.53368  -0.52763  -0.52665  -0.52408  -0.52216
  Beta  occ. eigenvalues --   -0.52098  -0.51975  -0.51791  -0.51266  -0.50822
  Beta  occ. eigenvalues --   -0.50580  -0.50352  -0.50013  -0.49899  -0.49693
  Beta  occ. eigenvalues --   -0.49292  -0.48447  -0.48153  -0.47815  -0.47588
  Beta  occ. eigenvalues --   -0.47338  -0.46720  -0.46658  -0.46310  -0.46011
  Beta  occ. eigenvalues --   -0.45910  -0.45717  -0.45642  -0.45489  -0.45464
  Beta  occ. eigenvalues --   -0.44867  -0.43941  -0.43823  -0.43582  -0.43458
  Beta  occ. eigenvalues --   -0.43179  -0.42344  -0.41574  -0.40504  -0.39278
  Beta  occ. eigenvalues --   -0.38235  -0.38065  -0.38032  -0.37991  -0.37902
  Beta  occ. eigenvalues --   -0.37828  -0.37787  -0.37644  -0.37575  -0.37411
  Beta  occ. eigenvalues --   -0.36994  -0.34834  -0.34359  -0.34270  -0.34059
  Beta  occ. eigenvalues --   -0.34044  -0.33017  -0.32010  -0.30556  -0.29162
  Beta  occ. eigenvalues --   -0.28221
  Beta virt. eigenvalues --   -0.00753   0.00338   0.01751   0.03331   0.04547
  Beta virt. eigenvalues --    0.07572   0.07683   0.07750   0.07952   0.07987
  Beta virt. eigenvalues --    0.08400   0.09333   0.10671   0.11776   0.12617

 Mulliken charges and spin densities:
               1          2
     1  C    0.016775  -0.000000
     2  C    0.015818   0.000000
     3  C    0.046952  -0.000000
     4  C   -0.063862  -0.000000
     5  C    0.102784   0.000000
     6  O   -0.268912   0.000000
     7  C    0.050815   0.000000
     8  C   -0.044240  -0.000000
     9  C    0.030097   0.000000
    10  N   -0.191647   0.000000
    11  C    0.120910  -0.000000
    12  C   -0.228681   0.000000
    13  S    0.176546  -0.000000
    14  C    0.042803   0.000000
    15  C    0.002715   0.000000
    16  C    0.058718   0.000000
    17  C   -0.052598   0.000000
    18  C    0.113136  -0.000000
    19  O   -0.269314   0.000000
    20  C    0.051722   0.000000
    21  C   -0.045516  -0.000000
    22  C    0.026015   0.000000
    23  N   -0.192653  -0.000000
    24  C    0.120727  -0.000000
    25  C   -0.228398   0.000000
    26  S    0.178421  -0.000000
    27  C    0.042745  -0.000000
    28  C    0.002789  -0.000000
    29  C    0.059143   0.000000
    30  C   -0.051929  -0.000000
    31  C    0.111978   0.000000
    32  O   -0.269585  -0.000000
    33  C    0.052330   0.000000
    34  C   -0.045907  -0.000000
    35  C    0.027626   0.000000
    36  N   -0.191606   0.000000
    37  C    0.125558  -0.000000
    38  C   -0.229128   0.000000
    39  S    0.165705  -0.000000
    40  C    0.045502  -0.000000
    41  C    0.000050   0.000000
    42  C    0.060436  -0.000000
    43  C   -0.051582   0.000000
    44  C    0.108905  -0.000000
    45  O   -0.269262  -0.000000
    46  C    0.051776  -0.000000
    47  C   -0.042935   0.000000
    48  C    0.026878   0.000000
    49  N   -0.191552  -0.000000
    50  C    0.125282   0.000000
    51  C   -0.228205  -0.000000
    52  S    0.165218   0.000000
    53  C    0.044444   0.000000
    54  C   -0.001255   0.000000
    55  C    0.059527  -0.000000
    56  C   -0.046292   0.000000
    57  C    0.111609  -0.000000
    58  O   -0.268941   0.000000
    59  C    0.051544  -0.000000
    60  C   -0.044071   0.000000
    61  C    0.008823  -0.000000
    62  N   -0.197029  -0.000000
    63  C    0.114675   0.000000
    64  C   -0.195769  -0.000000
    65  S    0.170405  -0.000000
    66  H    0.004201   0.000000
    67  H    0.001445  -0.000000
    68  H    0.004816   0.000000
    69  H    0.053973  -0.000000
    70  H    0.065130   0.000000
    71  H    0.054115  -0.000000
    72  H    0.006179  -0.000000
    73  H    0.012055  -0.000000
    74  H   -0.000745  -0.000000
    75  H    0.004458  -0.000000
    76  H    0.065776  -0.000000
    77  H    0.057348   0.000000
    78  H    0.054279  -0.000000
    79  H    0.000760  -0.000000
    80  H    0.011542  -0.000000
    81  H    0.000061  -0.000000
    82  H    0.006083   0.000000
    83  H    0.058031   0.000000
    84  H    0.053612  -0.000000
    85  H    0.062959   0.000000
    86  H    0.000322  -0.000000
    87  H    0.017082  -0.000000
    88  H   -0.004619   0.000000
    89  H    0.006512  -0.000000
    90  H    0.062775  -0.000000
    91  H    0.056531   0.000000
    92  H    0.054942   0.000000
    93  H    0.004624   0.000000
    94  H    0.016946  -0.000000
    95  H   -0.005249   0.000000
    96  H    0.006191  -0.000000
    97  H    0.064106   0.000000
    98  H    0.056590   0.000000
    99  H    0.053478   0.000000
   100  H    0.004147   0.000000
   101  H    0.013849   0.000000
   102  H    0.038663   0.000000
 Sum of Mulliken charges =  -0.00000  -0.00000

 Dipole moment (field-independent basis, Debye):
    X=             -4.2538    Y=              6.0986    Z=              0.3570  Tot=              7.4442
 Quadrupole moment (field-independent basis, Debye-Ang):
   XX=           -369.5242   YY=           -362.2815   ZZ=           -408.4132
   XY=             13.5735   XZ=             53.0556   YZ=              3.4005

 Normal termination of Gaussian 16 at Fri Jul 24 16:38:00 2020.
