 Gaussian 16, Revision A.03,
 Gaussian 16:  EM64L-G16RevA.03 25-Dec-2016

 ---------------------------------------------------------------
 #P uLC-wPBE/cc-pVDZ iop(3/107=0305400000, 3/108=0305400000) opt
 ---------------------------------------------------------------

 ----------------
 H29 C36 S3 O6 F3
 ----------------
 Symbolic Z-matrix:
 Charge =  0 Multiplicity = 1

 SCF Done:  E(ULC-wPBE) =  -3332.64495668     A.U. after   18 cycles
 SCF Done:  E(ULC-wPBE) =  -3332.71317659     A.U. after   14 cycles
 SCF Done:  E(ULC-wPBE) =  -3332.75836086     A.U. after   16 cycles
 SCF Done:  E(ULC-wPBE) =  -3332.77228735     A.U. after   13 cycles
 SCF Done:  E(ULC-wPBE) =  -3332.77768031     A.U. after   15 cycles
 SCF Done:  E(ULC-wPBE) =  -3332.78084855     A.U. after   13 cycles
 SCF Done:  E(ULC-wPBE) =  -3332.78368118     A.U. after   14 cycles
 SCF Done:  E(ULC-wPBE) =  -3332.78614136     A.U. after   13 cycles
 SCF Done:  E(ULC-wPBE) =  -3332.78888386     A.U. after   17 cycles
 SCF Done:  E(ULC-wPBE) =  -3332.78967293     A.U. after   13 cycles
 SCF Done:  E(ULC-wPBE) =  -3332.79210296     A.U. after   15 cycles
 SCF Done:  E(ULC-wPBE) =  -3332.79452204     A.U. after   11 cycles
 SCF Done:  E(ULC-wPBE) =  -3332.79495984     A.U. after   14 cycles
 SCF Done:  E(ULC-wPBE) =  -3332.79516843     A.U. after   12 cycles
 SCF Done:  E(ULC-wPBE) =  -3332.79521995     A.U. after   12 cycles
 SCF Done:  E(ULC-wPBE) =  -3332.79523103     A.U. after   11 cycles
 SCF Done:  E(ULC-wPBE) =  -3332.79523572     A.U. after   10 cycles
 SCF Done:  E(ULC-wPBE) =  -3332.79523689     A.U. after    8 cycles
 SCF Done:  E(ULC-wPBE) =  -3332.79523711     A.U. after    7 cycles
 SCF Done:  E(ULC-wPBE) =  -3332.79523720     A.U. after    7 cycles
 Optimization completed.
    -- Stationary point found.

                         Standard orientation:
 ---------------------------------------------------------------------
 Center     Atomic      Atomic             Coordinates (Angstroms)
 Number     Number       Type             X           Y           Z
 ---------------------------------------------------------------------
      1          6           0       11.271044   -0.642996    0.153917
      2          6           0       10.399572   -1.408485    0.922124
      3          6           0        9.045767   -1.057333    0.963905
      4          8           0        8.112714   -1.733281    1.683241
      5          6           0        8.534688   -2.851629    2.437519
      6          6           0        8.563520    0.051014    0.242685
      7          6           0        9.470669    0.796714   -0.535510
      8          8           0        8.934862    1.832909   -1.225783
      9          6           0        9.804190    2.651123   -1.981716
     10          6           0       10.827764    0.454454   -0.576100
     11          6           0        7.142085    0.440665    0.296048
     12          6           0        6.617789    1.664287    0.616281
     13          9           0        7.374031    2.703973    1.001601
     14          6           0        5.205464    1.765544    0.529364
     15          6           0        4.636822    0.582112    0.130727
     16         16           0        5.846177   -0.628054   -0.135417
     17          6           0        3.204836    0.283799   -0.064250
     18          6           0        2.703292   -0.993745    0.199850
     19          6           0        1.343567   -1.261095    0.014526
     20          8           0        0.777634   -2.464642    0.272429
     21          6           0        1.620010   -3.529543    0.665463
     22          6           0        0.463865   -0.260580   -0.441301
     23          6           0        0.989018    1.021333   -0.690084
     24          8           0        0.089968    1.941856   -1.121736
     25          6           0        0.548430    3.251794   -1.391915
     26          6           0        2.347092    1.294328   -0.510471
     27          6           0       -0.962319   -0.564661   -0.654906
     28          6           0       -1.502818   -1.576880   -1.402595
     29          9           0       -0.757919   -2.440915   -2.109392
     30          6           0       -2.918910   -1.659961   -1.385736
     31          6           0       -3.473950   -0.682618   -0.598941
     32         16           0       -2.249393    0.328898    0.090312
     33          6           0       -4.904334   -0.432062   -0.335130
     34          6           0       -5.847501   -0.711757   -1.328978
     35          6           0       -7.203424   -0.484686   -1.080782
     36          8           0       -8.182041   -0.724934   -1.990396
     37          6           0       -7.810667   -1.242358   -3.252504
     38          6           0       -7.642134    0.032697    0.152239
     39          6           0       -6.676411    0.300642    1.141179
     40          8           0       -7.157926    0.764907    2.319139
     41          6           0       -6.232437    1.111794    3.329857
     42          6           0       -5.318017    0.072682    0.900608
     43          6           0       -9.068275    0.300228    0.412983
     44          6           0       -9.635867    1.469655    0.844759
     45          9           0       -8.929483    2.593117    1.046083
     46          6           0      -11.039853    1.422121    1.062335
     47          6           0      -11.533498    0.178659    0.786219
     48         16           0      -10.307007   -0.905809    0.266070
     49          1           0       12.331799   -0.912741    0.121576
     50          1           0       10.777967   -2.264325    1.483728
     51          1           0        8.960516   -3.643399    1.793246
     52          1           0        7.633332   -3.237964    2.934767
     53          1           0        9.278237   -2.569049    3.205835
     54          1           0       10.305022    2.083010   -2.787864
     55          1           0        9.171004    3.429435   -2.431242
     56          1           0       10.569718    3.131155   -1.344239
     57          1           0       11.535879    1.031224   -1.173592
     58          1           0        4.649491    2.667562    0.791245
     59          1           0        3.376653   -1.764413    0.579646
     60          1           0        2.387332   -3.745747   -0.100628
     61          1           0        0.965194   -4.405457    0.777578
     62          1           0        2.117306   -3.324007    1.631783
     63          1           0        1.297138    3.262179   -2.205593
     64          1           0        0.981730    3.726872   -0.492134
     65          1           0       -0.336888    3.820962   -1.709457
     66          1           0        2.757368    2.277281   -0.746293
     67          1           0       -3.482927   -2.429886   -1.915270
     68          1           0       -5.507755   -1.072269   -2.300962
     69          1           0       -7.308793   -2.223607   -3.160765
     70          1           0       -7.150072   -0.545656   -3.801185
     71          1           0       -8.747454   -1.367781   -3.814113
     72          1           0       -5.536508    1.901419    2.991280
     73          1           0       -6.831895    1.494562    4.168138
     74          1           0       -5.650792    0.235493    3.671925
     75          1           0       -4.575214    0.254895    1.679536
     76          1           0      -11.630253    2.276057    1.399047
     77          1           0      -12.569315   -0.157984    0.848770
 ---------------------------------------------------------------------

 The electronic state is 1-A.
 Alpha  occ. eigenvalues --  -88.26299 -88.26182 -88.25965 -24.44248 -24.44155
 Alpha  occ. eigenvalues --  -24.43878 -18.96778 -18.96704 -18.96542 -18.96490
 Alpha  occ. eigenvalues --  -18.96432 -18.96238 -10.13984 -10.13899 -10.13589
 Alpha  occ. eigenvalues --  -10.13513 -10.13497 -10.13454 -10.13435 -10.13340
 Alpha  occ. eigenvalues --  -10.13268 -10.12551 -10.12350 -10.12276 -10.12238
 Alpha  occ. eigenvalues --  -10.12133 -10.11928 -10.10361 -10.10245 -10.09487
 Alpha  occ. eigenvalues --  -10.09425 -10.09407 -10.09269 -10.09251 -10.09106
 Alpha  occ. eigenvalues --  -10.07925 -10.07893 -10.07833 -10.07650 -10.07071
 Alpha  occ. eigenvalues --  -10.06946 -10.06804 -10.06540 -10.06519 -10.06491
 Alpha  occ. eigenvalues --  -10.06477 -10.06373 -10.06319  -7.86832  -7.86712
 Alpha  occ. eigenvalues --   -7.86510  -5.88665  -5.88545  -5.88336  -5.88168
 Alpha  occ. eigenvalues --   -5.88049  -5.87835  -5.87724  -5.87604  -5.87417
 Alpha  occ. eigenvalues --   -1.28432  -1.28342  -1.28053  -1.16102  -1.16047
 Alpha  occ. eigenvalues --   -1.15880  -1.15809  -1.15759  -1.15572  -0.99507
 Alpha  occ. eigenvalues --   -0.99293  -0.98502  -0.96292  -0.95671  -0.95189
 Alpha  occ. eigenvalues --   -0.90333  -0.88973  -0.87647  -0.86001  -0.85949
 Alpha  occ. eigenvalues --   -0.85821  -0.83853  -0.83496  -0.83331  -0.82605
 Alpha  occ. eigenvalues --   -0.82072  -0.81342  -0.80885  -0.80754  -0.80577
 Alpha  occ. eigenvalues --   -0.79318  -0.78667  -0.77376  -0.74163  -0.72321
 Alpha  occ. eigenvalues --   -0.71186  -0.68938  -0.68872  -0.68650  -0.67181
 Alpha  occ. eigenvalues --   -0.66616  -0.66417  -0.65985  -0.65848  -0.65781
 Alpha  occ. eigenvalues --   -0.64605  -0.64033  -0.62967  -0.61911  -0.61104
 Alpha  occ. eigenvalues --   -0.60746  -0.60466  -0.60254  -0.59947  -0.58917
 Alpha  occ. eigenvalues --   -0.58765  -0.58686  -0.57496  -0.57455  -0.57302
 Alpha  occ. eigenvalues --   -0.56921  -0.56797  -0.56644  -0.56558  -0.56271
 Alpha  occ. eigenvalues --   -0.55788  -0.55014  -0.54957  -0.54692  -0.54092
 Alpha  occ. eigenvalues --   -0.53913  -0.53799  -0.53584  -0.53140  -0.52980
 Alpha  occ. eigenvalues --   -0.52818  -0.52183  -0.51514  -0.50794  -0.50197
 Alpha  occ. eigenvalues --   -0.50062  -0.49971  -0.49588  -0.49477  -0.48983
 Alpha  occ. eigenvalues --   -0.48142  -0.48011  -0.47883  -0.47477  -0.47303
 Alpha  occ. eigenvalues --   -0.46791  -0.46269  -0.46155  -0.45845  -0.45215
 Alpha  occ. eigenvalues --   -0.45065  -0.44779  -0.43968  -0.43893  -0.43623
 Alpha  occ. eigenvalues --   -0.43308  -0.43140  -0.43019  -0.42637  -0.42405
 Alpha  occ. eigenvalues --   -0.42306  -0.41768  -0.41440  -0.41265  -0.40580
 Alpha  occ. eigenvalues --   -0.40401  -0.40129  -0.35162  -0.34370  -0.33362
 Alpha  occ. eigenvalues --   -0.32596  -0.32396  -0.32093  -0.30757  -0.30686
 Alpha  occ. eigenvalues --   -0.30563  -0.30534  -0.28612  -0.27144
 Alpha virt. eigenvalues --    0.01581   0.03122   0.06106   0.07271   0.08621
 Alpha virt. eigenvalues --    0.08836   0.09000   0.09587   0.11022   0.12591
 Alpha virt. eigenvalues --    0.12888   0.13359   0.14183   0.14349   0.14495

  Beta  occ. eigenvalues --  -88.26299 -88.26182 -88.25965 -24.44248 -24.44155
  Beta  occ. eigenvalues --  -24.43878 -18.96778 -18.96704 -18.96542 -18.96490
  Beta  occ. eigenvalues --  -18.96432 -18.96238 -10.13984 -10.13899 -10.13589
  Beta  occ. eigenvalues --  -10.13513 -10.13497 -10.13454 -10.13435 -10.13340
  Beta  occ. eigenvalues --  -10.13268 -10.12551 -10.12350 -10.12276 -10.12238
  Beta  occ. eigenvalues --  -10.12133 -10.11928 -10.10361 -10.10245 -10.09487
  Beta  occ. eigenvalues --  -10.09425 -10.09407 -10.09269 -10.09251 -10.09106
  Beta  occ. eigenvalues --  -10.07925 -10.07893 -10.07833 -10.07650 -10.07071
  Beta  occ. eigenvalues --  -10.06946 -10.06804 -10.06540 -10.06519 -10.06491
  Beta  occ. eigenvalues --  -10.06477 -10.06373 -10.06319  -7.86832  -7.86712
  Beta  occ. eigenvalues --   -7.86510  -5.88665  -5.88545  -5.88336  -5.88168
  Beta  occ. eigenvalues --   -5.88049  -5.87835  -5.87724  -5.87604  -5.87417
  Beta  occ. eigenvalues --   -1.28432  -1.28342  -1.28053  -1.16102  -1.16047
  Beta  occ. eigenvalues --   -1.15880  -1.15809  -1.15759  -1.15572  -0.99507
  Beta  occ. eigenvalues --   -0.99293  -0.98502  -0.96292  -0.95671  -0.95189
  Beta  occ. eigenvalues --   -0.90333  -0.88973  -0.87647  -0.86001  -0.85949
  Beta  occ. eigenvalues --   -0.85821  -0.83853  -0.83496  -0.83331  -0.82605
  Beta  occ. eigenvalues --   -0.82072  -0.81342  -0.80885  -0.80754  -0.80577
  Beta  occ. eigenvalues --   -0.79318  -0.78667  -0.77376  -0.74163  -0.72321
  Beta  occ. eigenvalues --   -0.71186  -0.68938  -0.68872  -0.68650  -0.67181
  Beta  occ. eigenvalues --   -0.66616  -0.66417  -0.65985  -0.65848  -0.65781
  Beta  occ. eigenvalues --   -0.64605  -0.64033  -0.62967  -0.61911  -0.61104
  Beta  occ. eigenvalues --   -0.60746  -0.60466  -0.60254  -0.59947  -0.58917
  Beta  occ. eigenvalues --   -0.58765  -0.58686  -0.57496  -0.57455  -0.57302
  Beta  occ. eigenvalues --   -0.56921  -0.56797  -0.56644  -0.56558  -0.56271
  Beta  occ. eigenvalues --   -0.55788  -0.55014  -0.54957  -0.54692  -0.54092
  Beta  occ. eigenvalues --   -0.53913  -0.53799  -0.53584  -0.53140  -0.52980
  Beta  occ. eigenvalues --   -0.52818  -0.52183  -0.51514  -0.50794  -0.50197
  Beta  occ. eigenvalues --   -0.50062  -0.49971  -0.49588  -0.49477  -0.48983
  Beta  occ. eigenvalues --   -0.48142  -0.48011  -0.47883  -0.47477  -0.47303
  Beta  occ. eigenvalues --   -0.46791  -0.46269  -0.46155  -0.45845  -0.45215
  Beta  occ. eigenvalues --   -0.45065  -0.44779  -0.43968  -0.43893  -0.43623
  Beta  occ. eigenvalues --   -0.43308  -0.43140  -0.43019  -0.42637  -0.42405
  Beta  occ. eigenvalues --   -0.42306  -0.41768  -0.41440  -0.41265  -0.40580
  Beta  occ. eigenvalues --   -0.40401  -0.40129  -0.35162  -0.34370  -0.33362
  Beta  occ. eigenvalues --   -0.32596  -0.32396  -0.32093  -0.30757  -0.30686
  Beta  occ. eigenvalues --   -0.30563  -0.30534  -0.28612  -0.27144
  Beta virt. eigenvalues --    0.01581   0.03122   0.06106   0.07271   0.08621
  Beta virt. eigenvalues --    0.08836   0.09000   0.09587   0.11022   0.12591
  Beta virt. eigenvalues --    0.12888   0.13359   0.14183   0.14349   0.14495

 Mulliken charges and spin densities:
               1          2
     1  C    0.026775   0.000000
     2  C   -0.050942   0.000000
     3  C    0.121394   0.000000
     4  O   -0.237625   0.000000
     5  C    0.055850   0.000000
     6  C   -0.039127  -0.000000
     7  C    0.122116   0.000000
     8  O   -0.234189   0.000000
     9  C    0.056371   0.000000
    10  C   -0.050872  -0.000000
    11  C   -0.169386   0.000000
    12  C    0.157151   0.000000
    13  F   -0.122906  -0.000000
    14  C    0.011392  -0.000000
    15  C   -0.157313   0.000000
    16  S    0.186457   0.000000
    17  C    0.055237  -0.000000
    18  C   -0.057698   0.000000
    19  C    0.127878   0.000000
    20  O   -0.235411  -0.000000
    21  C    0.057485  -0.000000
    22  C   -0.026753  -0.000000
    23  C    0.131804  -0.000000
    24  O   -0.238709   0.000000
    25  C    0.057878  -0.000000
    26  C   -0.057101   0.000000
    27  C   -0.173269   0.000000
    28  C    0.157011  -0.000000
    29  F   -0.122343   0.000000
    30  C    0.011845   0.000000
    31  C   -0.156307  -0.000000
    32  S    0.183927  -0.000000
    33  C    0.053262   0.000000
    34  C   -0.059040  -0.000000
    35  C    0.132785   0.000000
    36  O   -0.238114  -0.000000
    37  C    0.058346  -0.000000
    38  C   -0.020849  -0.000000
    39  C    0.129461   0.000000
    40  O   -0.234955  -0.000000
    41  C    0.057468   0.000000
    42  C   -0.057043   0.000000
    43  C   -0.179196  -0.000000
    44  C    0.139379   0.000000
    45  F   -0.124693  -0.000000
    46  C    0.034603  -0.000000
    47  C   -0.132613   0.000000
    48  S    0.178970   0.000000
    49  H   -0.006154   0.000000
    50  H   -0.009570   0.000000
    51  H    0.046345  -0.000000
    52  H    0.055355  -0.000000
    53  H    0.047859  -0.000000
    54  H    0.045417  -0.000000
    55  H    0.056010   0.000000
    56  H    0.047313  -0.000000
    57  H   -0.008659   0.000000
    58  H   -0.000699   0.000000
    59  H   -0.007828  -0.000000
    60  H    0.049193   0.000000
    61  H    0.055697  -0.000000
    62  H    0.046992  -0.000000
    63  H    0.049900  -0.000000
    64  H    0.045388  -0.000000
    65  H    0.058021   0.000000
    66  H   -0.014987  -0.000000
    67  H   -0.000940   0.000000
    68  H   -0.015003   0.000000
    69  H    0.045325   0.000000
    70  H    0.049942   0.000000
    71  H    0.056379   0.000000
    72  H    0.048869   0.000000
    73  H    0.055363   0.000000
    74  H    0.048046  -0.000000
    75  H   -0.006891   0.000000
    76  H    0.004421  -0.000000
    77  H    0.030505  -0.000000
 Sum of Mulliken charges =  -0.00000  -0.00000

 Dipole moment (field-independent basis, Debye):
    X=              3.7636    Y=             -0.9433    Z=             -0.0576  Tot=              3.8804
 Quadrupole moment (field-independent basis, Debye-Ang):
   XX=           -249.1018   YY=           -267.2364   ZZ=           -275.4896
   XY=             -2.2212   XZ=              2.2640   YZ=             -9.4348

 Normal termination of Gaussian 16 at Fri Jul 24 02:51:45 2020.
