 Gaussian 16, Revision A.03,
 Gaussian 16:  EM64L-G16RevA.03 25-Dec-2016

 ---------------------------------------------------------------
 #P uLC-wPBE/cc-pVDZ iop(3/107=0241000000, 3/108=0241000000) opt
 ---------------------------------------------------------------

 -----------------
 H44 C77 S7 O7 F14
 -----------------
 Symbolic Z-matrix:
 Charge =  0 Multiplicity = 1

 SCF Done:  E(ULC-wPBE) =  -7667.43571403     A.U. after   17 cycles
 SCF Done:  E(ULC-wPBE) =  -7667.54473791     A.U. after   13 cycles
 SCF Done:  E(ULC-wPBE) =  -7667.66625133     A.U. after   14 cycles
 SCF Done:  E(ULC-wPBE) =  -7667.70880291     A.U. after   15 cycles
 SCF Done:  E(ULC-wPBE) =  -7667.71961059     A.U. after   13 cycles
 SCF Done:  E(ULC-wPBE) =  -7667.72794357     A.U. after   15 cycles
 SCF Done:  E(ULC-wPBE) =  -7667.72648855     A.U. after   18 cycles
 SCF Done:  E(ULC-wPBE) =  -7667.73441964     A.U. after   13 cycles
 SCF Done:  E(ULC-wPBE) =  -7667.73692258     A.U. after   13 cycles
 SCF Done:  E(ULC-wPBE) =  -7667.73858540     A.U. after   14 cycles
 SCF Done:  E(ULC-wPBE) =  -7667.74011524     A.U. after   11 cycles
 SCF Done:  E(ULC-wPBE) =  -7667.74016041     A.U. after   11 cycles
 SCF Done:  E(ULC-wPBE) =  -7667.74018660     A.U. after   10 cycles
 SCF Done:  E(ULC-wPBE) =  -7667.74019871     A.U. after   10 cycles
 SCF Done:  E(ULC-wPBE) =  -7667.74020276     A.U. after    9 cycles
 SCF Done:  E(ULC-wPBE) =  -7667.74020383     A.U. after    9 cycles
 SCF Done:  E(ULC-wPBE) =  -7667.74020444     A.U. after    7 cycles
 SCF Done:  E(ULC-wPBE) =  -7667.74020442     A.U. after    8 cycles
 SCF Done:  E(ULC-wPBE) =  -7667.74020442     A.U. after    6 cycles
 SCF Done:  E(ULC-wPBE) =  -7667.74020436     A.U. after    5 cycles
 Optimization completed.
    -- Stationary point found.

                         Standard orientation:
 ---------------------------------------------------------------------
 Center     Atomic      Atomic             Coordinates (Angstroms)
 Number     Number       Type             X           Y           Z
 ---------------------------------------------------------------------
      1          6           0       24.721172    4.917889    2.255607
      2          6           0       24.670512    3.811690    3.098487
      3          6           0       23.802992    2.772928    2.768268
      4          9           0       23.735377    1.711864    3.596848
      5          6           0       22.992268    2.781748    1.627591
      6          6           0       23.061489    3.928469    0.797159
      7          8           0       22.243887    3.904198   -0.288809
      8          6           0       22.260005    5.023393   -1.161314
      9          6           0       23.921955    4.988152    1.110083
     10          6           0       22.114669    1.638384    1.324842
     11          6           0       22.439427    0.300940    1.347201
     12          9           0       23.684418   -0.143221    1.589375
     13          6           0       21.371199   -0.591059    1.071689
     14          6           0       20.195450    0.083427    0.828371
     15         16           0       20.424242    1.801280    0.945232
     16          6           0       18.876159   -0.484224    0.493151
     17          6           0       17.982507    0.208649   -0.331959
     18          6           0       16.755399   -0.374079   -0.626530
     19          9           0       15.908775    0.304550   -1.430326
     20          6           0       16.354893   -1.625639   -0.150690
     21          6           0       17.267892   -2.304166    0.696684
     22          8           0       16.834822   -3.494743    1.179728
     23          6           0       17.717857   -4.244865    1.998819
     24          6           0       18.509565   -1.739978    1.008894
     25          6           0       15.053643   -2.213337   -0.507339
     26          6           0       14.790892   -3.473543   -0.993939
     27          9           0       15.755701   -4.368821   -1.264684
     28          6           0       13.421168   -3.763764   -1.222597
     29          6           0       12.612681   -2.694253   -0.906526
     30         16           0       13.551661   -1.354820   -0.322959
     31          6           0       11.145229   -2.599644   -1.018768
     32          6           0       10.522110   -1.377155   -1.295421
     33          6           0        9.136541   -1.342382   -1.402261
     34          9           0        8.552025   -0.157006   -1.676942
     35          6           0        8.317242   -2.465212   -1.256018
     36          6           0        8.966913   -3.690913   -0.960546
     37          8           0        8.144397   -4.753769   -0.779842
     38          6           0        8.733525   -6.019323   -0.527016
     39          6           0       10.359931   -3.753506   -0.847098
     40          6           0        6.854872   -2.384951   -1.400680
     41          6           0        6.029092   -3.173099   -2.169345
     42          9           0        6.487870   -4.149982   -2.970002
     43          6           0        4.646279   -2.867954   -2.085110
     44          6           0        4.406710   -1.813886   -1.231138
     45         16           0        5.886507   -1.224729   -0.538850
     46          6           0        3.112093   -1.195442   -0.890413
     47          6           0        3.025017    0.163834   -0.570967
     48          6           0        1.781155    0.704164   -0.261517
     49          9           0        1.718449    2.021001    0.014124
     50          6           0        0.596143   -0.039137   -0.244911
     51          6           0        0.705992   -1.410997   -0.584911
     52          8           0       -0.463846   -2.102546   -0.571963
     53          6           0       -0.430475   -3.481639   -0.906121
     54          6           0        1.944383   -1.980001   -0.895076
     55          6           0       -0.684382    0.592271    0.110185
     56          6           0       -0.939905    1.438716    1.165756
     57          9           0       -0.018454    1.745188    2.094156
     58          6           0       -2.259813    1.954474    1.228269
     59          6           0       -3.038347    1.486821    0.193035
     60         16           0       -2.133136    0.423359   -0.839737
     61          6           0       -4.457509    1.781231   -0.081068
     62          6           0       -5.287203    0.827833   -0.683021
     63          6           0       -6.616280    1.155745   -0.924195
     64          9           0       -7.402647    0.224017   -1.506114
     65          6           0       -7.186190    2.387545   -0.591495
     66          6           0       -6.334151    3.331899    0.036621
     67          8           0       -6.920527    4.505916    0.374807
     68          6           0       -6.111046    5.515541    0.957492
     69          6           0       -4.987372    3.034415    0.273213
     70          6           0       -8.596021    2.696491   -0.879896
     71          6           0       -9.115509    3.801382   -1.514796
     72          9           0       -8.347980    4.777735   -2.026519
     73          6           0      -10.529931    3.832607   -1.622956
     74          6           0      -11.110200    2.718377   -1.059180
     75         16           0       -9.904842    1.657652   -0.394626
     76          6           0      -12.543555    2.380615   -0.985008
     77          6           0      -13.497662    3.401564   -0.913226
     78          6           0      -14.844740    3.060365   -0.857521
     79          9           0      -15.742814    4.059800   -0.762293
     80          6           0      -15.311832    1.741289   -0.871189
     81          6           0      -14.327188    0.723489   -0.925512
     82          8           0      -14.809315   -0.546990   -0.922407
     83          6           0      -13.876177   -1.615878   -0.975187
     84          6           0      -12.966728    1.039459   -0.987733
     85          6           0      -16.754075    1.453695   -0.831579
     86          6           0      -17.748667    2.047161   -1.576089
     87          9           0      -17.497444    2.955539   -2.533543
     88          6           0      -19.068753    1.617931   -1.284313
     89          6           0      -19.086132    0.666142   -0.289508
     90         16           0      -17.478562    0.318269    0.271357
     91          6           0      -20.256547   -0.025818    0.282029
     92          6           0      -21.495155    0.624957    0.326533
     93          6           0      -22.585407   -0.049420    0.864060
     94          9           0      -23.771071    0.595404    0.903904
     95          6           0      -22.521347   -1.347769    1.377374
     96          6           0      -21.260250   -1.992491    1.314563
     97          8           0      -21.234808   -3.264409    1.783660
     98          6           0      -19.990055   -3.944508    1.802378
     99          6           0      -20.146698   -1.337034    0.777059
    100          6           0      -23.698607   -2.014639    1.958292
    101          6           0      -23.804105   -2.641680    3.178556
    102          9           0      -22.793018   -2.694487    4.062924
    103          6           0      -25.072551   -3.222119    3.455818
    104          6           0      -25.941530   -3.024147    2.414530
    105         16           0      -25.220285   -2.142223    1.122407
    106          1           0       25.394043    5.750739    2.492243
    107          1           0       25.277712    3.734008    4.005847
    108          1           0       21.532543    4.794612   -1.956205
    109          1           0       23.260315    5.172199   -1.614454
    110          1           0       21.952134    5.952073   -0.640629
    111          1           0       23.978352    5.869592    0.465258
    112          1           0       21.492910   -1.676226    1.017719
    113          1           0       18.230752    1.178549   -0.775141
    114          1           0       18.653610   -4.499017    1.462451
    115          1           0       17.966310   -3.705609    2.934676
    116          1           0       17.179482   -5.172878    2.247885
    117          1           0       19.195670   -2.253211    1.687811
    118          1           0       13.069664   -4.709284   -1.644360
    119          1           0       11.091217   -0.456292   -1.459924
    120          1           0        9.397322   -6.332570   -1.357228
    121          1           0        9.306348   -6.022593    0.421851
    122          1           0        7.895194   -6.729066   -0.445883
    123          1           0       10.852247   -4.694569   -0.588087
    124          1           0        3.880776   -3.384712   -2.670258
    125          1           0        3.899093    0.823236   -0.586867
    126          1           0       -0.051236   -3.643353   -1.934833
    127          1           0        0.189644   -4.058785   -0.191797
    128          1           0       -1.473509   -3.830145   -0.844378
    129          1           0        2.024061   -3.047983   -1.114283
    130          1           0       -2.612294    2.606930    2.031599
    131          1           0       -4.926962   -0.169493   -0.955463
    132          1           0       -6.781082    6.371811    1.132938
    133          1           0       -5.679111    5.186707    1.923790
    134          1           0       -5.293894    5.825474    0.276441
    135          1           0       -4.325832    3.781553    0.719486
    136          1           0      -11.076970    4.629878   -2.133382
    137          1           0      -13.216115    4.457968   -0.867404
    138          1           0      -13.190781   -1.603154   -0.104514
    139          1           0      -14.476697   -2.538964   -0.952451
    140          1           0      -13.281321   -1.591298   -1.909673
    141          1           0      -12.218387    0.245731   -1.069525
    142          1           0      -19.950887    1.978189   -1.820258
    143          1           0      -21.623675    1.655566   -0.017865
    144          1           0      -19.584263   -4.085057    0.780436
    145          1           0      -20.194313   -4.930265    2.249304
    146          1           0      -19.243325   -3.410083    2.422634
    147          1           0      -19.184109   -1.852122    0.707330
    148          1           0      -25.309354   -3.746555    4.385404
    149          1           0      -26.983725   -3.343791    2.339466
 ---------------------------------------------------------------------

 Alpha virt. eigenvalues --    0.52036   0.52189   0.52198   0.52254   0.52336
 Alpha virt. eigenvalues --    0.52445   0.52580   0.52626   0.52691   0.52695
 Alpha virt. eigenvalues --    0.52767   0.52888   0.52903   0.52967   0.53097

  Beta  occ. eigenvalues --  -88.24107 -88.24079 -88.24075 -88.24070 -88.23928
  Beta  occ. eigenvalues --  -88.23904 -88.23535 -24.42583 -24.42456 -24.42442
  Beta  occ. eigenvalues --  -24.42192 -24.42144 -24.42124 -24.42102 -24.42101
  Beta  occ. eigenvalues --  -24.42099 -24.42049 -24.41961 -24.41946 -24.41911
  Beta  occ. eigenvalues --  -24.41564 -18.94855 -18.94737 -18.94545 -18.94539
  Beta  occ. eigenvalues --  -18.94484 -18.94482 -18.94164 -10.12697 -10.12628
  Beta  occ. eigenvalues --  -10.12613 -10.12580 -10.12483 -10.12272 -10.12241
  Beta  occ. eigenvalues --  -10.11745 -10.11740 -10.11731 -10.11699 -10.11575
  Beta  occ. eigenvalues --  -10.11545 -10.11398 -10.11338 -10.11331 -10.11291
  Beta  occ. eigenvalues --  -10.11288 -10.11112 -10.11034 -10.10966 -10.10026
  Beta  occ. eigenvalues --  -10.09881 -10.09799 -10.09775 -10.09714 -10.09660
  Beta  occ. eigenvalues --  -10.09450 -10.08043 -10.08029 -10.08026 -10.07988
  Beta  occ. eigenvalues --  -10.07881 -10.07800 -10.07399 -10.07382 -10.07374
  Beta  occ. eigenvalues --  -10.07368 -10.07280 -10.07245 -10.07233 -10.07224
  Beta  occ. eigenvalues --  -10.07207 -10.07194 -10.07144 -10.06932 -10.06730
  Beta  occ. eigenvalues --  -10.06633 -10.06261 -10.06257 -10.06226 -10.06196
  Beta  occ. eigenvalues --  -10.06150 -10.06011 -10.05836 -10.05350 -10.04791
  Beta  occ. eigenvalues --  -10.04775 -10.04748 -10.04670 -10.04644 -10.04622
  Beta  occ. eigenvalues --  -10.04586 -10.04586 -10.04543 -10.04524 -10.04477
  Beta  occ. eigenvalues --  -10.04467 -10.04398 -10.04380 -10.04364 -10.04310
  Beta  occ. eigenvalues --  -10.04290 -10.04285 -10.04213 -10.04099 -10.04029
  Beta  occ. eigenvalues --   -7.84528  -7.84499  -7.84495  -7.84475  -7.84333
  Beta  occ. eigenvalues --   -7.84308  -7.83964  -5.86494  -5.86466  -5.86462
  Beta  occ. eigenvalues --   -5.86444  -5.86302  -5.86277  -5.86017  -5.85986
  Beta  occ. eigenvalues --   -5.85983  -5.85964  -5.85923  -5.85822  -5.85799
  Beta  occ. eigenvalues --   -5.85573  -5.85546  -5.85542  -5.85522  -5.85442
  Beta  occ. eigenvalues --   -5.85381  -5.85354  -5.85028  -1.26496  -1.26391
  Beta  occ. eigenvalues --   -1.26390  -1.26389  -1.26269  -1.26147  -1.26037
  Beta  occ. eigenvalues --   -1.26011  -1.25993  -1.25936  -1.25839  -1.25672
  Beta  occ. eigenvalues --   -1.25644  -1.25412  -1.13635  -1.13510  -1.13432
  Beta  occ. eigenvalues --   -1.13385  -1.13375  -1.13316  -1.13070  -0.96988
  Beta  occ. eigenvalues --   -0.96903  -0.96790  -0.96666  -0.96563  -0.96515
  Beta  occ. eigenvalues --   -0.95646  -0.94278  -0.94055  -0.93770  -0.93466
  Beta  occ. eigenvalues --   -0.93157  -0.92886  -0.92816  -0.88398  -0.87985
  Beta  occ. eigenvalues --   -0.87439  -0.86806  -0.86146  -0.85551  -0.85093
  Beta  occ. eigenvalues --   -0.83241  -0.83184  -0.83135  -0.83052  -0.82979
  Beta  occ. eigenvalues --   -0.82775  -0.82659  -0.82168  -0.81576  -0.81443
  Beta  occ. eigenvalues --   -0.81258  -0.81223  -0.81063  -0.81014  -0.80845
  Beta  occ. eigenvalues --   -0.80362  -0.80162  -0.79558  -0.79173  -0.78985
  Beta  occ. eigenvalues --   -0.78838  -0.78257  -0.78100  -0.78066  -0.77735
  Beta  occ. eigenvalues --   -0.77199  -0.76558  -0.75926  -0.73345  -0.72605
  Beta  occ. eigenvalues --   -0.71837  -0.70995  -0.70464  -0.69855  -0.69700
  Beta  occ. eigenvalues --   -0.68826  -0.68684  -0.68620  -0.68504  -0.68435
  Beta  occ. eigenvalues --   -0.68376  -0.68002  -0.65470  -0.65369  -0.65295
  Beta  occ. eigenvalues --   -0.65266  -0.65087  -0.65017  -0.64971  -0.64819
  Beta  occ. eigenvalues --   -0.64806  -0.64677  -0.64651  -0.64515  -0.64131
  Beta  occ. eigenvalues --   -0.64099  -0.63049  -0.62921  -0.62562  -0.62377
  Beta  occ. eigenvalues --   -0.62035  -0.61664  -0.61227  -0.60969  -0.60144
  Beta  occ. eigenvalues --   -0.59748  -0.59630  -0.59543  -0.59369  -0.59303
  Beta  occ. eigenvalues --   -0.59271  -0.59176  -0.59058  -0.58947  -0.58845
  Beta  occ. eigenvalues --   -0.58605  -0.58445  -0.57298  -0.57201  -0.57135
  Beta  occ. eigenvalues --   -0.57094  -0.57066  -0.56821  -0.56426  -0.55844
  Beta  occ. eigenvalues --   -0.55745  -0.55720  -0.55677  -0.55655  -0.55551
  Beta  occ. eigenvalues --   -0.55508  -0.55486  -0.55331  -0.55235  -0.54992
  Beta  occ. eigenvalues --   -0.54770  -0.54573  -0.54493  -0.53934  -0.53912
  Beta  occ. eigenvalues --   -0.53901  -0.53835  -0.53663  -0.53604  -0.53453
  Beta  occ. eigenvalues --   -0.53449  -0.53310  -0.53190  -0.53156  -0.53019
  Beta  occ. eigenvalues --   -0.52970  -0.52654  -0.52502  -0.52473  -0.52432
  Beta  occ. eigenvalues --   -0.52250  -0.52176  -0.52135  -0.52119  -0.51766
  Beta  occ. eigenvalues --   -0.51717  -0.51629  -0.51563  -0.51493  -0.51424
  Beta  occ. eigenvalues --   -0.51196  -0.51151  -0.50902  -0.50617  -0.50480
  Beta  occ. eigenvalues --   -0.50337  -0.49820  -0.49440  -0.49292  -0.48594
  Beta  occ. eigenvalues --   -0.48178  -0.48054  -0.47898  -0.47777  -0.47695
  Beta  occ. eigenvalues --   -0.47480  -0.47341  -0.47294  -0.47178  -0.47142
  Beta  occ. eigenvalues --   -0.46922  -0.46813  -0.46727  -0.46646  -0.46561
  Beta  occ. eigenvalues --   -0.46504  -0.46379  -0.46207  -0.46067  -0.45921
  Beta  occ. eigenvalues --   -0.45666  -0.45435  -0.45118  -0.45033  -0.44972
  Beta  occ. eigenvalues --   -0.44840  -0.44662  -0.44606  -0.44515  -0.44458
  Beta  occ. eigenvalues --   -0.44347  -0.44193  -0.43992  -0.43682  -0.43626
  Beta  occ. eigenvalues --   -0.43537  -0.43491  -0.43469  -0.43466  -0.43340
  Beta  occ. eigenvalues --   -0.43284  -0.42169  -0.42061  -0.41938  -0.41914
  Beta  occ. eigenvalues --   -0.41893  -0.41883  -0.41644  -0.41561  -0.41469
  Beta  occ. eigenvalues --   -0.41386  -0.41297  -0.41200  -0.41199  -0.40869
  Beta  occ. eigenvalues --   -0.40742  -0.40583  -0.40503  -0.40453  -0.40368
  Beta  occ. eigenvalues --   -0.40167  -0.40162  -0.36675  -0.36371  -0.36013
  Beta  occ. eigenvalues --   -0.35431  -0.34844  -0.34165  -0.33536  -0.32844
  Beta  occ. eigenvalues --   -0.32649  -0.32576  -0.32501  -0.32430  -0.32365
  Beta  occ. eigenvalues --   -0.32149  -0.31403  -0.31316  -0.31304  -0.31291
  Beta  occ. eigenvalues --   -0.31286  -0.31115  -0.31016  -0.30736  -0.30176
  Beta  occ. eigenvalues --   -0.29381  -0.28548  -0.27683  -0.27022  -0.26611
  Beta virt. eigenvalues --   -0.01569  -0.01000  -0.00258   0.00744   0.01700
  Beta virt. eigenvalues --    0.02645   0.04338   0.05005   0.05688   0.05746
  Beta virt. eigenvalues --    0.05846   0.06006   0.06067   0.06210   0.06362

 Mulliken charges and spin densities:
               1          2
     1  C    0.036837  -0.000000
     2  C    0.005840  -0.000000
     3  C    0.107146  -0.000000
     4  F   -0.117025   0.000000
     5  C   -0.041972   0.000000
     6  C    0.115712  -0.000000
     7  O   -0.235214   0.000000
     8  C    0.058570  -0.000000
     9  C   -0.036027  -0.000000
    10  C   -0.166618  -0.000000
    11  C    0.145768  -0.000000
    12  F   -0.115781  -0.000000
    13  C    0.022375   0.000000
    14  C   -0.150998  -0.000000
    15  S    0.194144   0.000000
    16  C    0.071211   0.000000
    17  C   -0.009397  -0.000000
    18  C    0.115825  -0.000000
    19  F   -0.117206  -0.000000
    20  C   -0.034594   0.000000
    21  C    0.124420  -0.000000
    22  O   -0.229656   0.000000
    23  C    0.061356   0.000000
    24  C   -0.044061  -0.000000
    25  C   -0.175771  -0.000000
    26  C    0.153478   0.000000
    27  F   -0.116802  -0.000000
    28  C    0.021856  -0.000000
    29  C   -0.150793   0.000000
    30  S    0.195294  -0.000000
    31  C    0.071395  -0.000000
    32  C   -0.009618   0.000000
    33  C    0.116101  -0.000000
    34  F   -0.116064  -0.000000
    35  C   -0.034800   0.000000
    36  C    0.124518   0.000000
    37  O   -0.229538   0.000000
    38  C    0.061654  -0.000000
    39  C   -0.044436   0.000000
    40  C   -0.176067  -0.000000
    41  C    0.153701  -0.000000
    42  F   -0.116937   0.000000
    43  C    0.021127   0.000000
    44  C   -0.150439   0.000000
    45  S    0.196670  -0.000000
    46  C    0.072236   0.000000
    47  C   -0.009698  -0.000000
    48  C    0.112478   0.000000
    49  F   -0.113282   0.000000
    50  C   -0.030049  -0.000000
    51  C    0.125234   0.000000
    52  O   -0.236117   0.000000
    53  C    0.061263   0.000000
    54  C   -0.043464  -0.000000
    55  C   -0.170184   0.000000
    56  C    0.143716  -0.000000
    57  F   -0.114474  -0.000000
    58  C    0.023770  -0.000000
    59  C   -0.149479   0.000000
    60  S    0.194606  -0.000000
    61  C    0.068268  -0.000000
    62  C   -0.009302   0.000000
    63  C    0.116990  -0.000000
    64  F   -0.119178   0.000000
    65  C   -0.037288   0.000000
    66  C    0.126607  -0.000000
    67  O   -0.228642   0.000000
    68  C    0.061050   0.000000
    69  C   -0.043228   0.000000
    70  C   -0.175235   0.000000
    71  C    0.154916   0.000000
    72  F   -0.115388  -0.000000
    73  C    0.025698   0.000000
    74  C   -0.152073   0.000000
    75  S    0.183448   0.000000
    76  C    0.078563   0.000000
    77  C   -0.012797  -0.000000
    78  C    0.117006   0.000000
    79  F   -0.113697  -0.000000
    80  C   -0.030875  -0.000000
    81  C    0.121870   0.000000
    82  O   -0.236430  -0.000000
    83  C    0.059976  -0.000000
    84  C   -0.046993  -0.000000
    85  C   -0.169937   0.000000
    86  C    0.144677  -0.000000
    87  F   -0.114708   0.000000
    88  C    0.026630   0.000000
    89  C   -0.150999  -0.000000
    90  S    0.185727  -0.000000
    91  C    0.077601   0.000000
    92  C   -0.014102  -0.000000
    93  C    0.120973   0.000000
    94  F   -0.117352  -0.000000
    95  C   -0.028632  -0.000000
    96  C    0.122107   0.000000
    97  O   -0.228284  -0.000000
    98  C    0.060715   0.000000
    99  C   -0.048473  -0.000000
   100  C   -0.184649  -0.000000
   101  C    0.138327   0.000000
   102  F   -0.119837  -0.000000
   103  C    0.046408  -0.000000
   104  C   -0.125508   0.000000
   105  S    0.184383   0.000000
   106  H   -0.004563  -0.000000
   107  H   -0.001619   0.000000
   108  H    0.057235   0.000000
   109  H    0.049126   0.000000
   110  H    0.048310   0.000000
   111  H   -0.009763   0.000000
   112  H   -0.003188   0.000000
   113  H   -0.003656   0.000000
   114  H    0.047978  -0.000000
   115  H    0.050457  -0.000000
   116  H    0.055397  -0.000000
   117  H   -0.015062   0.000000
   118  H   -0.003320   0.000000
   119  H   -0.000058   0.000000
   120  H    0.047712   0.000000
   121  H    0.049520   0.000000
   122  H    0.055429  -0.000000
   123  H   -0.016446   0.000000
   124  H   -0.003873   0.000000
   125  H    0.000448  -0.000000
   126  H    0.047617  -0.000000
   127  H    0.051666  -0.000000
   128  H    0.056641   0.000000
   129  H   -0.016930  -0.000000
   130  H   -0.002714   0.000000
   131  H   -0.004941  -0.000000
   132  H    0.057152  -0.000000
   133  H    0.046213  -0.000000
   134  H    0.052482  -0.000000
   135  H   -0.014393  -0.000000
   136  H    0.001147   0.000000
   137  H   -0.009037   0.000000
   138  H    0.050274  -0.000000
   139  H    0.053837   0.000000
   140  H    0.053486   0.000000
   141  H   -0.007503  -0.000000
   142  H    0.000518   0.000000
   143  H   -0.008913   0.000000
   144  H    0.047845   0.000000
   145  H    0.055318  -0.000000
   146  H    0.049427  -0.000000
   147  H   -0.010664  -0.000000
   148  H    0.001791  -0.000000
   149  H    0.029546  -0.000000
 Sum of Mulliken charges =  -0.00000  -0.00000

 Dipole moment (field-independent basis, Debye):
    X=              5.6047    Y=             -5.4921    Z=              1.2044  Tot=              7.9389
 Quadrupole moment (field-independent basis, Debye-Ang):
   XX=           -642.8185   YY=           -539.3063   ZZ=           -640.5506
   XY=             83.4657   XZ=             -5.2261   YZ=             -5.3478

 Normal termination of Gaussian 16 at Sat Jul 25 14:50:12 2020.
