 Gaussian 16, Revision A.03,
 Gaussian 16:  EM64L-G16RevA.03 25-Dec-2016

 ---------------------------------------------------------------
 #P uLC-wPBE/cc-pVDZ iop(3/107=0164300000, 3/108=0164300000) opt
 ---------------------------------------------------------------

 ------------
 H7 C10 N2 F1
 ------------
 Symbolic Z-matrix:
 Charge =  0 Multiplicity = 1

 SCF Done:  E(ULC-wPBE) =  -594.073924986     A.U. after   15 cycles
 SCF Done:  E(ULC-wPBE) =  -594.101867616     A.U. after   14 cycles
 SCF Done:  E(ULC-wPBE) =  -594.106480407     A.U. after   14 cycles
 SCF Done:  E(ULC-wPBE) =  -594.106691307     A.U. after   13 cycles
 SCF Done:  E(ULC-wPBE) =  -594.106741564     A.U. after   12 cycles
 SCF Done:  E(ULC-wPBE) =  -594.106745772     A.U. after    9 cycles
 SCF Done:  E(ULC-wPBE) =  -594.106746401     A.U. after    9 cycles
 Optimization completed.
    -- Stationary point found.

                         Standard orientation:
 ---------------------------------------------------------------------
 Center     Atomic      Atomic             Coordinates (Angstroms)
 Number     Number       Type             X           Y           Z
 ---------------------------------------------------------------------
      1          6           0        3.603884   -0.015771   -0.000823
      2          6           0        2.986093   -1.272196    0.006397
      3          6           0        1.592229   -1.337061    0.006559
      4          6           0        0.857552   -0.134209   -0.000592
      5          7           0        1.443518    1.079993   -0.007654
      6          6           0        2.784572    1.119620   -0.007580
      7          6           0       -0.638420   -0.195990   -0.000583
      8          7           0       -1.175902   -1.435212   -0.003614
      9          6           0       -2.504159   -1.587257   -0.004353
     10          6           0       -3.402981   -0.512928   -0.002316
     11          6           0       -2.873855    0.777777    0.001612
     12          6           0       -1.486162    0.934993    0.002655
     13          9           0       -1.009152    2.191698    0.007901
     14          1           0        4.697430    0.086086   -0.001161
     15          1           0        3.585172   -2.193594    0.011677
     16          1           0        1.046573   -2.287734    0.011801
     17          1           0        3.231638    2.127306   -0.013827
     18          1           0       -2.871015   -2.625779   -0.007111
     19          1           0       -4.487738   -0.682599   -0.003551
     20          1           0       -3.505527    1.675705    0.004085
 ---------------------------------------------------------------------

 The electronic state is 1-A.
 Alpha  occ. eigenvalues --  -24.37908 -14.09874 -14.08552 -10.08374 -10.04118
 Alpha  occ. eigenvalues --  -10.03393 -10.03082 -10.02399 -10.01865 -10.01466
 Alpha  occ. eigenvalues --  -10.01121 -10.00343  -9.99839  -1.21694  -0.96983
 Alpha  occ. eigenvalues --   -0.94983  -0.83434  -0.82251  -0.81051  -0.76785
 Alpha  occ. eigenvalues --   -0.69001  -0.67754  -0.64816  -0.63964  -0.58195
 Alpha  occ. eigenvalues --   -0.56198  -0.55127  -0.53060  -0.50878  -0.50344
 Alpha  occ. eigenvalues --   -0.50038  -0.47174  -0.45917  -0.45556  -0.44066
 Alpha  occ. eigenvalues --   -0.43554  -0.43487  -0.41901  -0.39605  -0.35929
 Alpha  occ. eigenvalues --   -0.33998  -0.32753  -0.30950  -0.28991  -0.28772
 Alpha virt. eigenvalues --   -0.01434   0.01588   0.03033   0.06372   0.11401
 Alpha virt. eigenvalues --    0.12060   0.15362   0.16317   0.16332   0.18148
 Alpha virt. eigenvalues --    0.18320   0.18567   0.20508   0.21438   0.26188

  Beta  occ. eigenvalues --  -24.37908 -14.09874 -14.08552 -10.08374 -10.04118
  Beta  occ. eigenvalues --  -10.03393 -10.03082 -10.02399 -10.01865 -10.01466
  Beta  occ. eigenvalues --  -10.01121 -10.00343  -9.99839  -1.21694  -0.96983
  Beta  occ. eigenvalues --   -0.94983  -0.83434  -0.82251  -0.81051  -0.76785
  Beta  occ. eigenvalues --   -0.69001  -0.67754  -0.64816  -0.63964  -0.58195
  Beta  occ. eigenvalues --   -0.56198  -0.55127  -0.53060  -0.50878  -0.50344
  Beta  occ. eigenvalues --   -0.50038  -0.47174  -0.45917  -0.45556  -0.44066
  Beta  occ. eigenvalues --   -0.43554  -0.43487  -0.41901  -0.39605  -0.35929
  Beta  occ. eigenvalues --   -0.33998  -0.32753  -0.30950  -0.28991  -0.28772
  Beta virt. eigenvalues --   -0.01434   0.01588   0.03033   0.06372   0.11401
  Beta virt. eigenvalues --    0.12060   0.15362   0.16317   0.16332   0.18148
  Beta virt. eigenvalues --    0.18320   0.18567   0.20508   0.21438   0.26188

 Mulliken charges and spin densities:
               1          2
     1  C   -0.020150   0.000000
     2  C    0.071726  -0.000000
     3  C    0.046131   0.000000
     4  C    0.042693  -0.000000
     5  N   -0.191846   0.000000
     6  C    0.082158  -0.000000
     7  C    0.044917  -0.000000
     8  N   -0.198607   0.000000
     9  C    0.086300   0.000000
    10  C   -0.015592  -0.000000
    11  C    0.064162   0.000000
    12  C    0.118135   0.000000
    13  F   -0.097307   0.000000
    14  H   -0.012586  -0.000000
    15  H   -0.008434  -0.000000
    16  H   -0.012175   0.000000
    17  H   -0.001034  -0.000000
    18  H    0.003006  -0.000000
    19  H   -0.006117  -0.000000
    20  H    0.004621   0.000000
 Sum of Mulliken charges =   0.00000   0.00000

 Dipole moment (field-independent basis, Debye):
    X=             -0.5970    Y=             -1.0033    Z=              0.0092  Tot=              1.1675
 Quadrupole moment (field-independent basis, Debye-Ang):
   XX=            -53.7179   YY=            -72.2066   ZZ=            -75.7556
   XY=             -1.1104   XZ=              0.0117   YZ=             -0.0207

 Normal termination of Gaussian 16 at Fri Jul 24 21:47:20 2020.
