 Gaussian 16, Revision A.03,
 Gaussian 16:  EM64L-G16RevA.03 25-Dec-2016

 ---------------------------------------------------------------
 #P uLC-wPBE/cc-pVDZ iop(3/107=0399300000, 3/108=0399300000) opt
 ---------------------------------------------------------------

 ----------
 H44 C70 S7
 ----------
 Symbolic Z-matrix:
 Charge =  0 Multiplicity = 1

 SCF Done:  E(ULC-wPBE) =  -5478.43101214     A.U. after   17 cycles
 SCF Done:  E(ULC-wPBE) =  -5478.51899321     A.U. after   15 cycles
 SCF Done:  E(ULC-wPBE) =  -5478.59865231     A.U. after   14 cycles
 SCF Done:  E(ULC-wPBE) =  -5478.61877713     A.U. after   15 cycles
 SCF Done:  E(ULC-wPBE) =  -5478.62455806     A.U. after   15 cycles
 SCF Done:  E(ULC-wPBE) =  -5478.62550431     A.U. after   13 cycles
 SCF Done:  E(ULC-wPBE) =  -5478.62590201     A.U. after   12 cycles
 SCF Done:  E(ULC-wPBE) =  -5478.62620977     A.U. after   13 cycles
 SCF Done:  E(ULC-wPBE) =  -5478.62631043     A.U. after   13 cycles
 SCF Done:  E(ULC-wPBE) =  -5478.62635427     A.U. after   11 cycles
 SCF Done:  E(ULC-wPBE) =  -5478.62637013     A.U. after   11 cycles
 SCF Done:  E(ULC-wPBE) =  -5478.62637290     A.U. after   11 cycles
 SCF Done:  E(ULC-wPBE) =  -5478.62637451     A.U. after   11 cycles
 SCF Done:  E(ULC-wPBE) =  -5478.62637566     A.U. after   12 cycles
 SCF Done:  E(ULC-wPBE) =  -5478.62637598     A.U. after    8 cycles
 SCF Done:  E(ULC-wPBE) =  -5478.62637594     A.U. after    8 cycles
 SCF Done:  E(ULC-wPBE) =  -5478.62637590     A.U. after    7 cycles
 SCF Done:  E(ULC-wPBE) =  -5478.62637592     A.U. after    6 cycles
 SCF Done:  E(ULC-wPBE) =  -5478.62637594     A.U. after    5 cycles
 SCF Done:  E(ULC-wPBE) =  -5478.62637591     A.U. after    7 cycles
 Optimization completed.
    -- Stationary point found.

                         Standard orientation:
 ---------------------------------------------------------------------
 Center     Atomic      Atomic             Coordinates (Angstroms)
 Number     Number       Type             X           Y           Z
 ---------------------------------------------------------------------
      1          6           0       25.490159    5.577185    0.529979
      2          6           0       25.071389    4.487486    1.282860
      3          6           0       23.940927    3.773665    0.910927
      4          6           0       23.205033    4.142097   -0.217385
      5          6           0       23.629587    5.244694   -0.962706
      6          6           0       24.765234    5.951690   -0.594970
      7          6           0       22.008950    3.386387   -0.630136
      8          6           0       21.550068    3.154784   -1.896327
      9          6           0       20.360550    2.378674   -1.926882
     10          6           0       19.918314    2.022637   -0.683535
     11         16           0       20.963843    2.658139    0.533578
     12          6           0       18.732529    1.223546   -0.333239
     13          6           0       17.591880    1.261057   -1.138010
     14          6           0       16.478933    0.495730   -0.831918
     15          6           0       16.457945   -0.321758    0.300219
     16          6           0       17.591811   -0.345396    1.114963
     17          6           0       18.711258    0.406102    0.798996
     18          6           0       15.284605   -1.145567    0.634779
     19          6           0       15.256195   -2.356952    1.267514
     20          6           0       13.942983   -2.873537    1.427515
     21          6           0       12.976247   -2.053794    0.915833
     22         16           0       13.684393   -0.630118    0.245489
     23          6           0       11.519570   -2.265417    0.900612
     24          6           0       10.898161   -2.969224    1.935222
     25          6           0        9.531410   -3.189325    1.926017
     26          6           0        8.734047   -2.713877    0.881967
     27          6           0        9.353643   -2.002411   -0.147006
     28          6           0       10.721437   -1.782210   -0.137799
     29          6           0        7.284203   -2.970259    0.877881
     30          6           0        6.616216   -4.049199    1.385841
     31          6           0        5.209617   -3.972230    1.204587
     32          6           0        4.811705   -2.834322    0.560362
     33         16           0        6.175876   -1.851110    0.173100
     34          6           0        3.444038   -2.420801    0.204990
     35          6           0        2.474412   -3.378368   -0.099723
     36          6           0        1.180524   -3.003904   -0.421632
     37          6           0        0.809112   -1.658011   -0.454872
     38          6           0        1.778667   -0.700439   -0.149481
     39          6           0        3.072654   -1.074823    0.172055
     40          6           0       -0.557964   -1.245246   -0.812197
     41          6           0       -0.956024   -0.106951   -1.455787
     42          6           0       -2.362133   -0.032099   -1.641137
     43          6           0       -3.029635   -1.113689   -1.138017
     44         16           0       -1.922805   -2.225104   -0.418599
     45          6           0       -4.478087   -1.376377   -1.152778
     46          6           0       -4.984355   -2.675767   -1.229043
     47          6           0       -6.349312   -2.908899   -1.248734
     48          6           0       -7.258989   -1.850051   -1.211130
     49          6           0       -6.752722   -0.550687   -1.134379
     50          6           0       -5.387954   -0.318519   -1.096780
     51          6           0       -8.707020   -2.111197   -1.258644
     52          6           0       -9.360804   -3.132140   -1.890099
     53          6           0      -10.770968   -3.076591   -1.730364
     54          6           0      -11.185750   -2.013417   -0.978047
     55         16           0       -9.832173   -1.082238   -0.450441
     56          6           0      -12.561620   -1.640331   -0.610298
     57          6           0      -12.938119   -0.305884   -0.448173
     58          6           0      -14.238472    0.031557   -0.109623
     59          6           0      -15.212722   -0.952595    0.066652
     60          6           0      -14.837872   -2.287558   -0.103356
     61          6           0      -13.534446   -2.625655   -0.425097
     62          6           0      -16.597185   -0.609743    0.432684
     63          6           0      -17.472697   -1.330504    1.195620
     64          6           0      -18.734345   -0.696084    1.348856
     65          6           0      -18.815150    0.504488    0.700723
     66         16           0      -17.329258    0.858572   -0.102016
     67          6           0      -19.958901    1.429771    0.637920
     68          6           0      -20.199854    2.218117   -0.489359
     69          6           0      -21.288814    3.072473   -0.541508
     70          6           0      -22.174128    3.173564    0.533421
     71          6           0      -21.932853    2.385557    1.660733
     72          6           0      -20.844229    1.530829    1.713010
     73          6           0      -23.319164    4.098305    0.470602
     74          6           0      -23.393927    5.305647   -0.165927
     75          6           0      -24.661270    5.937249   -0.018821
     76          6           0      -25.525966    5.196880    0.726355
     77         16           0      -24.815082    3.729556    1.249429
     78          1           0       26.380511    6.136887    0.821287
     79          1           0       25.634921    4.183360    2.166635
     80          1           0       23.631297    2.905846    1.496892
     81          1           0       23.049211    5.561080   -1.830935
     82          1           0       25.081143    6.811669   -1.188184
     83          1           0       22.070286    3.502581   -2.788019
     84          1           0       19.866302    2.063925   -2.845242
     85          1           0       17.572402    1.909914   -2.014827
     86          1           0       15.608198    0.531036   -1.489690
     87          1           0       17.593013   -0.956109    2.018976
     88          1           0       19.590286    0.353560    1.444419
     89          1           0       16.156597   -2.883651    1.581341
     90          1           0       13.723104   -3.840837    1.877713
     91          1           0       11.493905   -3.325294    2.777039
     92          1           0        9.067004   -3.716357    2.760814
     93          1           0        8.758499   -1.632916   -0.984416
     94          1           0       11.181771   -1.242818   -0.967880
     95          1           0        7.120487   -4.889255    1.861909
     96          1           0        4.510800   -4.729205    1.558530
     97          1           0        2.745715   -4.435006   -0.110758
     98          1           0        0.449162   -3.772953   -0.677926
     99          1           0        1.507175    0.356146   -0.138075
    100          1           0        3.803938   -0.305600    0.428161
    101          1           0       -0.256229    0.644410   -1.819645
    102          1           0       -2.861569    0.783198   -2.163142
    103          1           0       -4.296362   -3.522094   -1.278436
    104          1           0       -6.718168   -3.935016   -1.283760
    105          1           0       -7.440396    0.296924   -1.107789
    106          1           0       -5.019672    0.704882   -1.011826
    107          1           0       -8.848025   -3.887190   -2.484742
    108          1           0      -11.460830   -3.784168   -2.188726
    109          1           0      -12.201512    0.486100   -0.596761
    110          1           0      -14.499769    1.082693    0.027464
    111          1           0      -15.584349   -3.074971    0.011191
    112          1           0      -13.261813   -3.677084   -0.527821
    113          1           0      -17.214833   -2.284600    1.653737
    114          1           0      -19.564985   -1.126083    1.907226
    115          1           0      -19.536883    2.142977   -1.353613
    116          1           0      -21.471654    3.655053   -1.445637
    117          1           0      -22.596045    2.461213    2.524717
    118          1           0      -20.661843    0.948616    2.617466
    119          1           0      -22.554622    5.744619   -0.704183
    120          1           0      -24.913312    6.906949   -0.445982
    121          1           0      -26.552965    5.434229    0.995201
 ---------------------------------------------------------------------

 Alpha  occ. eigenvalues --   -1.02016  -1.01622  -1.01305  -1.01106  -0.96083
 Alpha  occ. eigenvalues --   -0.95601  -0.94924  -0.94122  -0.93245  -0.92384
 Alpha  occ. eigenvalues --   -0.91550  -0.90929  -0.90872  -0.90763  -0.90683
 Alpha  occ. eigenvalues --   -0.90605  -0.90562  -0.90067  -0.89131  -0.88913
 Alpha  occ. eigenvalues --   -0.88793  -0.88648  -0.88535  -0.88485  -0.88236
 Alpha  occ. eigenvalues --   -0.88079  -0.87727  -0.86845  -0.85705  -0.84553
 Alpha  occ. eigenvalues --   -0.83542  -0.82793  -0.78683  -0.77900  -0.77276
 Alpha  occ. eigenvalues --   -0.76980  -0.76467  -0.76298  -0.76021  -0.75765
 Alpha  occ. eigenvalues --   -0.75426  -0.75326  -0.74971  -0.74790  -0.74143
 Alpha  occ. eigenvalues --   -0.73795  -0.69554  -0.69298  -0.69220  -0.69176
 Alpha  occ. eigenvalues --   -0.69129  -0.69077  -0.68943  -0.68907  -0.68801
 Alpha  occ. eigenvalues --   -0.68527  -0.68457  -0.68389  -0.68177  -0.68104
 Alpha  occ. eigenvalues --   -0.66396  -0.66320  -0.66125  -0.65833  -0.65401
 Alpha  occ. eigenvalues --   -0.64866  -0.64400  -0.62799  -0.61361  -0.60882
 Alpha  occ. eigenvalues --   -0.60088  -0.59945  -0.59796  -0.59628  -0.59393
 Alpha  occ. eigenvalues --   -0.59169  -0.58869  -0.58589  -0.58467  -0.58096
 Alpha  occ. eigenvalues --   -0.57979  -0.57829  -0.57738  -0.57670  -0.57422
 Alpha  occ. eigenvalues --   -0.57033  -0.56336  -0.55858  -0.55409  -0.55257
 Alpha  occ. eigenvalues --   -0.55242  -0.55164  -0.55049  -0.55026  -0.54764
 Alpha  occ. eigenvalues --   -0.54517  -0.54295  -0.54246  -0.54112  -0.53891
 Alpha  occ. eigenvalues --   -0.53592  -0.53324  -0.53253  -0.53006  -0.52865
 Alpha  occ. eigenvalues --   -0.52634  -0.52444  -0.52321  -0.51889  -0.51629
 Alpha  occ. eigenvalues --   -0.51436  -0.51272  -0.51123  -0.50954  -0.50929
 Alpha  occ. eigenvalues --   -0.50721  -0.50501  -0.50312  -0.49993  -0.49659
 Alpha  occ. eigenvalues --   -0.49556  -0.49338  -0.49198  -0.48899  -0.48666
 Alpha  occ. eigenvalues --   -0.48474  -0.48250  -0.47977  -0.47413  -0.47182
 Alpha  occ. eigenvalues --   -0.47042  -0.46970  -0.46847  -0.46837  -0.46586
 Alpha  occ. eigenvalues --   -0.46344  -0.46207  -0.45933  -0.45545  -0.45269
 Alpha  occ. eigenvalues --   -0.45009  -0.44846  -0.44627  -0.44419  -0.44338
 Alpha  occ. eigenvalues --   -0.42250  -0.41782  -0.41003  -0.40111  -0.38939
 Alpha  occ. eigenvalues --   -0.37874  -0.37080  -0.37070  -0.37053  -0.37042
 Alpha  occ. eigenvalues --   -0.36993  -0.36948  -0.36793  -0.36496  -0.36240
 Alpha  occ. eigenvalues --   -0.36221  -0.36193  -0.36179  -0.36170  -0.36028
 Alpha  occ. eigenvalues --   -0.35958  -0.34721  -0.33544  -0.32245  -0.31037
 Alpha  occ. eigenvalues --   -0.29934  -0.29033  -0.28504
 Alpha virt. eigenvalues --   -0.00139   0.00471   0.01345   0.02414   0.03520
 Alpha virt. eigenvalues --    0.04829   0.06027   0.06304   0.06403   0.06493
 Alpha virt. eigenvalues --    0.06629   0.06699   0.06763   0.07195   0.07485

  Beta  occ. eigenvalues --  -88.32225 -88.32222 -88.32218 -88.32186 -88.32178
  Beta  occ. eigenvalues --  -88.32032 -88.32025 -10.16007 -10.16003 -10.16003
  Beta  occ. eigenvalues --  -10.16001 -10.15999 -10.15995 -10.15967 -10.15966
  Beta  occ. eigenvalues --  -10.15960 -10.15949 -10.15817 -10.15778 -10.15749
  Beta  occ. eigenvalues --  -10.14955 -10.14756 -10.14752 -10.14745 -10.14741
  Beta  occ. eigenvalues --  -10.14740 -10.14739 -10.14735 -10.14726 -10.14670
  Beta  occ. eigenvalues --  -10.14655 -10.14649 -10.14608 -10.14395 -10.13354
  Beta  occ. eigenvalues --  -10.13348 -10.13343 -10.13337 -10.13330 -10.13329
  Beta  occ. eigenvalues --  -10.13327 -10.13323 -10.13311 -10.13306 -10.13300
  Beta  occ. eigenvalues --  -10.13296 -10.13289 -10.13289 -10.13285 -10.13284
  Beta  occ. eigenvalues --  -10.13269 -10.13258 -10.13233 -10.13229 -10.13219
  Beta  occ. eigenvalues --  -10.13216 -10.13188 -10.13178 -10.12875 -10.12875
  Beta  occ. eigenvalues --  -10.12872 -10.12870 -10.12870 -10.12848 -10.12845
  Beta  occ. eigenvalues --  -10.12843 -10.12839 -10.12832 -10.12830 -10.12821
  Beta  occ. eigenvalues --  -10.12807 -10.12799 -10.12725 -10.12724 -10.12703
  Beta  occ. eigenvalues --  -10.12639 -10.12594  -7.93009  -7.93006  -7.93004
  Beta  occ. eigenvalues --   -7.92969  -7.92964  -7.92820  -7.92816  -5.94525
  Beta  occ. eigenvalues --   -5.94522  -5.94520  -5.94486  -5.94480  -5.94332
  Beta  occ. eigenvalues --   -5.94329  -5.93998  -5.93994  -5.93993  -5.93958
  Beta  occ. eigenvalues --   -5.93953  -5.93805  -5.93798  -5.93600  -5.93597
  Beta  occ. eigenvalues --   -5.93595  -5.93560  -5.93554  -5.93427  -5.93408
  Beta  occ. eigenvalues --   -1.05918  -1.05822  -1.05688  -1.05535  -1.05373
  Beta  occ. eigenvalues --   -1.05249  -1.04825  -1.03063  -1.02782  -1.02417
  Beta  occ. eigenvalues --   -1.02016  -1.01622  -1.01305  -1.01106  -0.96083
  Beta  occ. eigenvalues --   -0.95601  -0.94924  -0.94122  -0.93245  -0.92384
  Beta  occ. eigenvalues --   -0.91550  -0.90929  -0.90872  -0.90763  -0.90683
  Beta  occ. eigenvalues --   -0.90605  -0.90562  -0.90067  -0.89131  -0.88913
  Beta  occ. eigenvalues --   -0.88793  -0.88648  -0.88535  -0.88485  -0.88236
  Beta  occ. eigenvalues --   -0.88079  -0.87727  -0.86845  -0.85705  -0.84553
  Beta  occ. eigenvalues --   -0.83542  -0.82793  -0.78683  -0.77900  -0.77276
  Beta  occ. eigenvalues --   -0.76980  -0.76467  -0.76298  -0.76021  -0.75765
  Beta  occ. eigenvalues --   -0.75426  -0.75326  -0.74971  -0.74790  -0.74143
  Beta  occ. eigenvalues --   -0.73795  -0.69554  -0.69298  -0.69220  -0.69176
  Beta  occ. eigenvalues --   -0.69129  -0.69077  -0.68943  -0.68907  -0.68801
  Beta  occ. eigenvalues --   -0.68527  -0.68457  -0.68389  -0.68177  -0.68104
  Beta  occ. eigenvalues --   -0.66396  -0.66320  -0.66125  -0.65833  -0.65401
  Beta  occ. eigenvalues --   -0.64866  -0.64400  -0.62799  -0.61361  -0.60882
  Beta  occ. eigenvalues --   -0.60088  -0.59945  -0.59796  -0.59628  -0.59393
  Beta  occ. eigenvalues --   -0.59169  -0.58869  -0.58589  -0.58467  -0.58096
  Beta  occ. eigenvalues --   -0.57979  -0.57829  -0.57738  -0.57670  -0.57422
  Beta  occ. eigenvalues --   -0.57033  -0.56336  -0.55858  -0.55409  -0.55257
  Beta  occ. eigenvalues --   -0.55242  -0.55164  -0.55049  -0.55026  -0.54764
  Beta  occ. eigenvalues --   -0.54517  -0.54295  -0.54246  -0.54112  -0.53891
  Beta  occ. eigenvalues --   -0.53592  -0.53324  -0.53253  -0.53006  -0.52865
  Beta  occ. eigenvalues --   -0.52634  -0.52444  -0.52321  -0.51889  -0.51629
  Beta  occ. eigenvalues --   -0.51436  -0.51272  -0.51123  -0.50954  -0.50929
  Beta  occ. eigenvalues --   -0.50721  -0.50501  -0.50312  -0.49993  -0.49659
  Beta  occ. eigenvalues --   -0.49556  -0.49338  -0.49198  -0.48899  -0.48666
  Beta  occ. eigenvalues --   -0.48474  -0.48250  -0.47977  -0.47413  -0.47182
  Beta  occ. eigenvalues --   -0.47042  -0.46970  -0.46847  -0.46837  -0.46586
  Beta  occ. eigenvalues --   -0.46344  -0.46207  -0.45933  -0.45545  -0.45269
  Beta  occ. eigenvalues --   -0.45009  -0.44846  -0.44627  -0.44419  -0.44338
  Beta  occ. eigenvalues --   -0.42250  -0.41782  -0.41003  -0.40111  -0.38939
  Beta  occ. eigenvalues --   -0.37874  -0.37080  -0.37070  -0.37053  -0.37042
  Beta  occ. eigenvalues --   -0.36993  -0.36948  -0.36793  -0.36496  -0.36240
  Beta  occ. eigenvalues --   -0.36221  -0.36193  -0.36179  -0.36170  -0.36028
  Beta  occ. eigenvalues --   -0.35958  -0.34721  -0.33544  -0.32245  -0.31037
  Beta  occ. eigenvalues --   -0.29934  -0.29033  -0.28504
  Beta virt. eigenvalues --   -0.00139   0.00471   0.01345   0.02414   0.03520
  Beta virt. eigenvalues --    0.04829   0.06027   0.06304   0.06403   0.06493
  Beta virt. eigenvalues --    0.06629   0.06699   0.06763   0.07195   0.07485

 Mulliken charges and spin densities:
               1          2
     1  C   -0.002427  -0.000000
     2  C    0.010079   0.000000
     3  C   -0.014593  -0.000000
     4  C    0.030356   0.000000
     5  C   -0.015246  -0.000000
     6  C    0.011496  -0.000000
     7  C   -0.154841  -0.000000
     8  C    0.022199   0.000000
     9  C    0.017087   0.000000
    10  C   -0.157776   0.000000
    11  S    0.164661  -0.000000
    12  C    0.042353  -0.000000
    13  C   -0.002806  -0.000000
    14  C    0.000236   0.000000
    15  C    0.041372  -0.000000
    16  C   -0.002670  -0.000000
    17  C    0.000106   0.000000
    18  C   -0.157269   0.000000
    19  C    0.018994  -0.000000
    20  C    0.019057  -0.000000
    21  C   -0.158261   0.000000
    22  S    0.165408  -0.000000
    23  C    0.043366  -0.000000
    24  C   -0.001927   0.000000
    25  C   -0.002096  -0.000000
    26  C    0.041522   0.000000
    27  C   -0.003497  -0.000000
    28  C   -0.000563  -0.000000
    29  C   -0.155995  -0.000000
    30  C    0.019791  -0.000000
    31  C    0.020558   0.000000
    32  C   -0.156192  -0.000000
    33  S    0.160935   0.000000
    34  C    0.040713  -0.000000
    35  C   -0.003593   0.000000
    36  C   -0.000229  -0.000000
    37  C    0.043549   0.000000
    38  C   -0.002922  -0.000000
    39  C   -0.000991   0.000000
    40  C   -0.157863  -0.000000
    41  C    0.019043   0.000000
    42  C    0.019373  -0.000000
    43  C   -0.157435   0.000000
    44  S    0.164567   0.000000
    45  C    0.041335  -0.000000
    46  C    0.000458   0.000000
    47  C   -0.002518  -0.000000
    48  C    0.041423   0.000000
    49  C    0.000406  -0.000000
    50  C   -0.002403   0.000000
    51  C   -0.157437   0.000000
    52  C    0.018805   0.000000
    53  C    0.019116   0.000000
    54  C   -0.157668  -0.000000
    55  S    0.165509  -0.000000
    56  C    0.040823  -0.000000
    57  C    0.000076   0.000000
    58  C   -0.001955  -0.000000
    59  C    0.038479  -0.000000
    60  C   -0.000407   0.000000
    61  C   -0.000883  -0.000000
    62  C   -0.156153   0.000000
    63  C    0.020204   0.000000
    64  C    0.020257   0.000000
    65  C   -0.155577  -0.000000
    66  S    0.160798   0.000000
    67  C    0.039425   0.000000
    68  C   -0.001905   0.000000
    69  C   -0.001594  -0.000000
    70  C    0.045402   0.000000
    71  C    0.001983   0.000000
    72  C   -0.004307  -0.000000
    73  C   -0.157690   0.000000
    74  C   -0.009677  -0.000000
    75  C    0.044607  -0.000000
    76  C   -0.145806   0.000000
    77  S    0.155372   0.000000
    78  H    0.007235  -0.000000
    79  H    0.008680  -0.000000
    80  H    0.006003   0.000000
    81  H   -0.000367   0.000000
    82  H    0.008530   0.000000
    83  H    0.006028  -0.000000
    84  H    0.006071  -0.000000
    85  H    0.001397   0.000000
    86  H    0.007793  -0.000000
    87  H    0.001266  -0.000000
    88  H    0.008049  -0.000000
    89  H    0.006569  -0.000000
    90  H    0.006056   0.000000
    91  H    0.001295   0.000000
    92  H    0.001360  -0.000000
    93  H    0.010726  -0.000000
    94  H    0.008098   0.000000
    95  H    0.006381  -0.000000
    96  H    0.006854   0.000000
    97  H    0.001450  -0.000000
    98  H    0.007734  -0.000000
    99  H    0.001767   0.000000
   100  H    0.010684  -0.000000
   101  H    0.006896  -0.000000
   102  H    0.006760   0.000000
   103  H    0.007867  -0.000000
   104  H    0.001446  -0.000000
   105  H    0.008212  -0.000000
   106  H    0.001749   0.000000
   107  H    0.006645  -0.000000
   108  H    0.006449   0.000000
   109  H    0.008234   0.000000
   110  H    0.010858   0.000000
   111  H    0.001161  -0.000000
   112  H    0.001064  -0.000000
   113  H    0.006544  -0.000000
   114  H    0.006816   0.000000
   115  H    0.010052  -0.000000
   116  H    0.002005   0.000000
   117  H    0.008310  -0.000000
   118  H    0.001407  -0.000000
   119  H    0.008688  -0.000000
   120  H    0.010820   0.000000
   121  H    0.042240  -0.000000
 Sum of Mulliken charges =  -0.00000   0.00000

 Dipole moment (field-independent basis, Debye):
    X=              0.3637    Y=             -0.6521    Z=             -0.6122  Tot=              0.9656
 Quadrupole moment (field-independent basis, Debye-Ang):
   XX=           -403.6627   YY=           -446.6172   ZZ=           -480.7540
   XY=             -1.1587   XZ=              0.4977   YZ=            -21.0661

 Normal termination of Gaussian 16 at Fri Jul 24 22:46:56 2020.
