 Gaussian 16, Revision A.03,
 Gaussian 16:  EM64L-G16RevA.03 25-Dec-2016

 ---------------------------------------------------------------
 #P uLC-wPBE/cc-pVDZ iop(3/107=0125100000, 3/108=0125100000) opt
 ---------------------------------------------------------------

 -------------
 H17 C30 N6 F3
 -------------
 Symbolic Z-matrix:
 Charge =  0 Multiplicity = 1

 SCF Done:  E(ULC-wPBE) =  -1779.76524590     A.U. after   15 cycles
 SCF Done:  E(ULC-wPBE) =  -1779.83034889     A.U. after   14 cycles
 SCF Done:  E(ULC-wPBE) =  -1779.88099819     A.U. after   15 cycles
 SCF Done:  E(ULC-wPBE) =  -1779.88384401     A.U. after   14 cycles
 SCF Done:  E(ULC-wPBE) =  -1779.88441562     A.U. after   13 cycles
 SCF Done:  E(ULC-wPBE) =  -1779.88460886     A.U. after   14 cycles
 SCF Done:  E(ULC-wPBE) =  -1779.88464252     A.U. after   11 cycles
 SCF Done:  E(ULC-wPBE) =  -1779.88465573     A.U. after   11 cycles
 SCF Done:  E(ULC-wPBE) =  -1779.88465808     A.U. after    9 cycles
 SCF Done:  E(ULC-wPBE) =  -1779.88465846     A.U. after    8 cycles
 SCF Done:  E(ULC-wPBE) =  -1779.88465862     A.U. after    8 cycles
 SCF Done:  E(ULC-wPBE) =  -1779.88465859     A.U. after    7 cycles
 SCF Done:  E(ULC-wPBE) =  -1779.88465867     A.U. after    7 cycles
 SCF Done:  E(ULC-wPBE) =  -1779.88465875     A.U. after    7 cycles
 SCF Done:  E(ULC-wPBE) =  -1779.88465872     A.U. after    6 cycles
 Optimization completed.
    -- Stationary point found.

                         Standard orientation:
 ---------------------------------------------------------------------
 Center     Atomic      Atomic             Coordinates (Angstroms)
 Number     Number       Type             X           Y           Z
 ---------------------------------------------------------------------
      1          6           0       12.122979   -0.519946    0.320012
      2          6           0       11.324319   -1.419334    1.039441
      3          6           0        9.935199   -1.300236    0.959018
      4          6           0        9.387058   -0.276927    0.156000
      5          7           0       10.148416    0.594060   -0.541329
      6          6           0       11.481261    0.460448   -0.449637
      7          6           0        7.902304   -0.143272    0.062507
      8          7           0        7.178478   -1.074093    0.726237
      9          6           0        5.844935   -1.039834    0.690534
     10          6           0        5.093610   -0.074794   -0.016822
     11          6           0        5.832888    0.903820   -0.701377
     12          6           0        7.227454    0.870790   -0.657241
     13          9           0        7.883868    1.832655   -1.330934
     14          6           0        3.613830   -0.090784   -0.020722
     15          6           0        2.876607   -1.292601   -0.045135
     16          6           0        1.483780   -1.246267   -0.041549
     17          6           0        0.841094    0.009928   -0.020465
     18          7           0        1.528306    1.172581    0.010078
     19          6           0        2.865105    1.105818    0.013352
     20          6           0       -0.649303    0.068160   -0.033611
     21          7           0       -1.288995   -1.123687   -0.077252
     22          6           0       -2.622278   -1.169045   -0.099425
     23          6           0       -3.456694   -0.028456   -0.085947
     24          6           0       -2.804722    1.214502   -0.033356
     25          6           0       -1.410154    1.260368   -0.003810
     26          9           0       -0.836883    2.476421    0.041013
     27          6           0       -4.931796   -0.143601   -0.112716
     28          6           0       -5.593608   -1.134991   -0.866135
     29          6           0       -6.985619   -1.198096   -0.848442
     30          6           0       -7.703623   -0.258413   -0.078553
     31          7           0       -7.088838    0.693734    0.656084
     32          6           0       -5.751077    0.732707    0.631536
     33          6           0       -9.196180   -0.311208   -0.067947
     34          7           0       -9.754268   -1.309244   -0.791736
     35          6           0      -11.085372   -1.434947   -0.838199
     36          6           0      -11.966327   -0.574756   -0.166176
     37          6           0      -11.416055    0.464813    0.585978
     38          6           0      -10.025095    0.596153    0.633580
     39          9           0       -9.524382    1.609902    1.362722
     40          1           0       13.220074   -0.574014    0.352144
     41          1           0       11.779955   -2.206221    1.657795
     42          1           0        9.254064   -1.972182    1.495234
     43          1           0       12.074263    1.186273   -1.031194
     44          1           0        5.328599   -1.816359    1.278296
     45          1           0        5.348829    1.690382   -1.296117
     46          1           0        3.396482   -2.260481   -0.091383
     47          1           0        0.868697   -2.153856   -0.067630
     48          1           0        3.389149    2.075326    0.067040
     49          1           0       -3.068527   -2.176829   -0.107729
     50          1           0       -3.357731    2.163590   -0.038615
     51          1           0       -5.017183   -1.838777   -1.483924
     52          1           0       -7.544807   -1.946528   -1.422778
     53          1           0       -5.286453    1.505845    1.267078
     54          1           0      -11.470437   -2.269485   -1.446072
     55          1           0      -13.053970   -0.715003   -0.231142
     56          1           0      -12.033252    1.184050    1.141074
 ---------------------------------------------------------------------

 The electronic state is 1-A.
 Alpha  occ. eigenvalues --  -24.36417 -24.36403 -24.36001 -14.08427 -14.08315
 Alpha  occ. eigenvalues --  -14.08039 -14.07455 -14.07321 -14.06532 -10.06836
 Alpha  occ. eigenvalues --  -10.06811 -10.06443 -10.02578 -10.02530 -10.02139
 Alpha  occ. eigenvalues --  -10.02124 -10.02024 -10.01581 -10.01467 -10.01375
 Alpha  occ. eigenvalues --  -10.01368 -10.01248 -10.01207 -10.00873 -10.00537
 Alpha  occ. eigenvalues --  -10.00356 -10.00305 -10.00247 -10.00170 -10.00130
 Alpha  occ. eigenvalues --   -9.99951  -9.99860  -9.99842  -9.99785  -9.99075
 Alpha  occ. eigenvalues --   -9.98657  -9.98548  -9.98323  -9.97861  -1.20044
 Alpha  occ. eigenvalues --   -1.20040  -1.19635  -0.95459  -0.95295  -0.94927
 Alpha  occ. eigenvalues --   -0.93696  -0.93494  -0.92782  -0.84339  -0.83923
 Alpha  occ. eigenvalues --   -0.81698  -0.80462  -0.80248  -0.79966  -0.79551
 Alpha  occ. eigenvalues --   -0.79271  -0.78817  -0.76610  -0.75089  -0.73586
 Alpha  occ. eigenvalues --   -0.69415  -0.67830  -0.66894  -0.66614  -0.65851
 Alpha  occ. eigenvalues --   -0.65300  -0.64069  -0.63438  -0.62920  -0.62498
 Alpha  occ. eigenvalues --   -0.61922  -0.61313  -0.57026  -0.56654  -0.56231
 Alpha  occ. eigenvalues --   -0.55144  -0.54800  -0.54421  -0.54179  -0.53862
 Alpha  occ. eigenvalues --   -0.53212  -0.51716  -0.51107  -0.50346  -0.49956
 Alpha  occ. eigenvalues --   -0.49715  -0.49052  -0.48850  -0.48827  -0.48737
 Alpha  occ. eigenvalues --   -0.48395  -0.47609  -0.47053  -0.45889  -0.45084
 Alpha  occ. eigenvalues --   -0.44641  -0.44554  -0.44393  -0.44147  -0.43640
 Alpha  occ. eigenvalues --   -0.43517  -0.43087  -0.42910  -0.42678  -0.42431
 Alpha  occ. eigenvalues --   -0.42231  -0.42061  -0.41826  -0.41540  -0.41413
 Alpha  occ. eigenvalues --   -0.40968  -0.40079  -0.39063  -0.38568  -0.38044
 Alpha  occ. eigenvalues --   -0.36777  -0.35531  -0.33930  -0.33016  -0.32927
 Alpha  occ. eigenvalues --   -0.32506  -0.31758  -0.31734  -0.31378  -0.30298
 Alpha  occ. eigenvalues --   -0.29768  -0.29576  -0.29236  -0.28095  -0.27758
 Alpha  occ. eigenvalues --   -0.27503  -0.27134  -0.26219
 Alpha virt. eigenvalues --   -0.05436  -0.03546  -0.01714  -0.00845  -0.00603
 Alpha virt. eigenvalues --   -0.00053   0.00699   0.00773   0.01349   0.02614
 Alpha virt. eigenvalues --    0.04766   0.06545   0.09526   0.10527   0.10686

  Beta  occ. eigenvalues --  -24.36417 -24.36403 -24.36001 -14.08427 -14.08315
  Beta  occ. eigenvalues --  -14.08039 -14.07455 -14.07321 -14.06532 -10.06836
  Beta  occ. eigenvalues --  -10.06811 -10.06443 -10.02578 -10.02530 -10.02139
  Beta  occ. eigenvalues --  -10.02124 -10.02024 -10.01581 -10.01467 -10.01375
  Beta  occ. eigenvalues --  -10.01368 -10.01248 -10.01207 -10.00873 -10.00537
  Beta  occ. eigenvalues --  -10.00356 -10.00305 -10.00247 -10.00170 -10.00130
  Beta  occ. eigenvalues --   -9.99951  -9.99860  -9.99842  -9.99785  -9.99075
  Beta  occ. eigenvalues --   -9.98657  -9.98548  -9.98323  -9.97861  -1.20044
  Beta  occ. eigenvalues --   -1.20040  -1.19635  -0.95459  -0.95295  -0.94927
  Beta  occ. eigenvalues --   -0.93696  -0.93494  -0.92782  -0.84339  -0.83923
  Beta  occ. eigenvalues --   -0.81698  -0.80462  -0.80248  -0.79966  -0.79551
  Beta  occ. eigenvalues --   -0.79271  -0.78817  -0.76610  -0.75089  -0.73586
  Beta  occ. eigenvalues --   -0.69415  -0.67830  -0.66894  -0.66614  -0.65851
  Beta  occ. eigenvalues --   -0.65300  -0.64069  -0.63438  -0.62920  -0.62498
  Beta  occ. eigenvalues --   -0.61922  -0.61313  -0.57026  -0.56654  -0.56231
  Beta  occ. eigenvalues --   -0.55144  -0.54800  -0.54421  -0.54179  -0.53862
  Beta  occ. eigenvalues --   -0.53212  -0.51716  -0.51107  -0.50346  -0.49956
  Beta  occ. eigenvalues --   -0.49715  -0.49052  -0.48850  -0.48827  -0.48737
  Beta  occ. eigenvalues --   -0.48395  -0.47609  -0.47053  -0.45889  -0.45084
  Beta  occ. eigenvalues --   -0.44641  -0.44554  -0.44393  -0.44147  -0.43640
  Beta  occ. eigenvalues --   -0.43517  -0.43087  -0.42910  -0.42678  -0.42431
  Beta  occ. eigenvalues --   -0.42231  -0.42061  -0.41826  -0.41540  -0.41413
  Beta  occ. eigenvalues --   -0.40968  -0.40079  -0.39063  -0.38568  -0.38044
  Beta  occ. eigenvalues --   -0.36777  -0.35531  -0.33930  -0.33016  -0.32927
  Beta  occ. eigenvalues --   -0.32506  -0.31758  -0.31734  -0.31378  -0.30298
  Beta  occ. eigenvalues --   -0.29768  -0.29576  -0.29236  -0.28095  -0.27758
  Beta  occ. eigenvalues --   -0.27503  -0.27134  -0.26219
  Beta virt. eigenvalues --   -0.05436  -0.03546  -0.01714  -0.00845  -0.00603
  Beta virt. eigenvalues --   -0.00053   0.00699   0.00773   0.01349   0.02614
  Beta virt. eigenvalues --    0.04766   0.06545   0.09526   0.10527   0.10686

 Mulliken charges and spin densities:
               1          2
     1  C   -0.016581   0.000000
     2  C    0.072104  -0.000000
     3  C    0.049934  -0.000000
     4  C    0.043358   0.000000
     5  N   -0.192765   0.000000
     6  C    0.082316  -0.000000
     7  C    0.046993  -0.000000
     8  N   -0.198053   0.000000
     9  C    0.085196  -0.000000
    10  C   -0.031640   0.000000
    11  C    0.063297   0.000000
    12  C    0.126662   0.000000
    13  F   -0.095080   0.000000
    14  C   -0.033785  -0.000000
    15  C    0.064223   0.000000
    16  C    0.064677  -0.000000
    17  C    0.049122   0.000000
    18  N   -0.190508  -0.000000
    19  C    0.081716  -0.000000
    20  C    0.044241   0.000000
    21  N   -0.199448   0.000000
    22  C    0.086656  -0.000000
    23  C   -0.031050   0.000000
    24  C    0.063744   0.000000
    25  C    0.128529   0.000000
    26  F   -0.094529  -0.000000
    27  C   -0.034671   0.000000
    28  C    0.065018  -0.000000
    29  C    0.064392  -0.000000
    30  C    0.050134   0.000000
    31  N   -0.189685   0.000000
    32  C    0.081673   0.000000
    33  C    0.043815  -0.000000
    34  N   -0.200168   0.000000
    35  C    0.087250  -0.000000
    36  C   -0.011849   0.000000
    37  C    0.066890  -0.000000
    38  C    0.120528   0.000000
    39  F   -0.096019   0.000000
    40  H   -0.013701   0.000000
    41  H   -0.009492   0.000000
    42  H   -0.014479   0.000000
    43  H   -0.001608  -0.000000
    44  H   -0.003279  -0.000000
    45  H   -0.005760  -0.000000
    46  H   -0.016094   0.000000
    47  H   -0.013574  -0.000000
    48  H   -0.002905   0.000000
    49  H   -0.002243   0.000000
    50  H   -0.004595   0.000000
    51  H   -0.015958  -0.000000
    52  H   -0.013218  -0.000000
    53  H   -0.002808   0.000000
    54  H    0.003867  -0.000000
    55  H   -0.005616  -0.000000
    56  H    0.004822   0.000000
 Sum of Mulliken charges =  -0.00000   0.00000

 Dipole moment (field-independent basis, Debye):
    X=             -2.8285    Y=             -2.3936    Z=             -0.0960  Tot=              3.7066
 Quadrupole moment (field-independent basis, Debye-Ang):
   XX=           -151.2826   YY=           -214.5824   ZZ=           -219.7737
   XY=             -5.2829   XZ=             11.1962   YZ=             -0.0998

 Normal termination of Gaussian 16 at Sat Jul 25 12:19:46 2020.
