 Gaussian 16, Revision A.03,
 Gaussian 16:  EM64L-G16RevA.03 25-Dec-2016

 ---------------------------------------------------------------
 #P uLC-wPBE/cc-pVDZ iop(3/107=0332100000, 3/108=0332100000) opt
 ---------------------------------------------------------------

 ---------------
 H12 C40 S10 F10
 ---------------
 Symbolic Z-matrix:
 Charge =  0 Multiplicity = 1

 SCF Done:  E(ULC-wPBE) =  -6508.70671867     A.U. after   16 cycles
 SCF Done:  E(ULC-wPBE) =  -6508.77077097     A.U. after   14 cycles
 SCF Done:  E(ULC-wPBE) =  -6508.81969020     A.U. after   14 cycles
 SCF Done:  E(ULC-wPBE) =  -6508.82260028     A.U. after   13 cycles
 SCF Done:  E(ULC-wPBE) =  -6508.82358947     A.U. after   13 cycles
 SCF Done:  E(ULC-wPBE) =  -6508.82440416     A.U. after   14 cycles
 SCF Done:  E(ULC-wPBE) =  -6508.82507639     A.U. after   13 cycles
 SCF Done:  E(ULC-wPBE) =  -6508.82603991     A.U. after   15 cycles
 SCF Done:  E(ULC-wPBE) =  -6508.82644281     A.U. after   13 cycles
 SCF Done:  E(ULC-wPBE) =  -6508.82664512     A.U. after   12 cycles
 SCF Done:  E(ULC-wPBE) =  -6508.82721049     A.U. after   12 cycles
 SCF Done:  E(ULC-wPBE) =  -6508.82721295     A.U. after   12 cycles
 SCF Done:  E(ULC-wPBE) =  -6508.82721392     A.U. after   11 cycles
 SCF Done:  E(ULC-wPBE) =  -6508.82721444     A.U. after   10 cycles
 SCF Done:  E(ULC-wPBE) =  -6508.82721495     A.U. after   10 cycles
 SCF Done:  E(ULC-wPBE) =  -6508.82721503     A.U. after    8 cycles
 SCF Done:  E(ULC-wPBE) =  -6508.82721508     A.U. after    6 cycles
 SCF Done:  E(ULC-wPBE) =  -6508.82721512     A.U. after    6 cycles
 SCF Done:  E(ULC-wPBE) =  -6508.82721510     A.U. after    6 cycles
 SCF Done:  E(ULC-wPBE) =  -6508.82721510     A.U. after    6 cycles
 Optimization completed.
    -- Stationary point found.

                         Standard orientation:
 ---------------------------------------------------------------------
 Center     Atomic      Atomic             Coordinates (Angstroms)
 Number     Number       Type             X           Y           Z
 ---------------------------------------------------------------------
      1          6           0       17.590506    2.882934   -0.840196
      2          6           0       16.668187    3.107328   -1.819411
      3          6           0       15.432183    2.495488   -1.491105
      4          9           0       14.359015    2.569514   -2.295504
      5          6           0       15.407092    1.822736   -0.296941
      6         16           0       16.966035    1.945599    0.455620
      7          6           0       14.292103    1.104548    0.299167
      8          6           0       14.262820    0.426974    1.490529
      9          9           0       15.332995    0.347934    2.297365
     10          6           0       13.025795   -0.172319    1.822606
     11          6           0       12.089284    0.052179    0.847403
     12         16           0       12.736887    0.984737   -0.459953
     13          6           0       10.706098   -0.415315    0.829078
     14          6           0       10.218558   -1.580465    1.361981
     15          6           0        8.823087   -1.687940    1.163338
     16          9           0        8.119669   -2.747603    1.593352
     17          6           0        8.238104   -0.646191    0.490287
     18         16           0        9.452079    0.530887    0.101040
     19          6           0        6.839418   -0.485609    0.133545
     20          6           0        6.253079    0.558119   -0.535048
     21          9           0        6.954980    1.618077   -0.964517
     22          6           0        4.861346    0.439125   -0.753223
     23          6           0        4.376237   -0.731554   -0.229825
     24         16           0        5.624282   -1.659610    0.529862
     25          6           0        3.004107   -1.227019   -0.248942
     26          6           0        2.572374   -2.527800   -0.209527
     27          6           0        1.161100   -2.598681   -0.251252
     28          9           0        0.503864   -3.768762   -0.232277
     29          6           0        0.508973   -1.394739   -0.324484
     30         16           0        1.680444   -0.114226   -0.323209
     31          6           0       -0.921967   -1.155679   -0.389546
     32          6           0       -1.574281    0.048426   -0.459168
     33          9           0       -0.917328    1.218698   -0.478335
     34          6           0       -2.984775   -0.023538   -0.521287
     35          6           0       -3.415409   -1.324814   -0.494808
     36         16           0       -2.093561   -2.435953   -0.381673
     37          6           0       -4.786722   -1.821960   -0.545645
     38          6           0       -5.235681   -3.024569   -1.026794
     39          6           0       -6.644258   -3.134943   -0.918631
     40          9           0       -7.304784   -4.208942   -1.358246
     41          6           0       -7.270666   -2.050306   -0.363976
     42         16           0       -6.087695   -0.857209    0.063602
     43          6           0       -8.694906   -1.863070   -0.129509
     44          6           0       -9.595642   -2.776730    0.350781
     45          9           0       -9.252790   -4.018385    0.703201
     46          6           0      -10.922706   -2.298367    0.484422
     47          6           0      -11.027292   -0.988332    0.095276
     48         16           0       -9.507929   -0.367080   -0.454746
     49          6           0      -12.230461   -0.160358    0.090586
     50          6           0      -13.517621   -0.572814   -0.134674
     51          6           0      -14.423491    0.509702   -0.046280
     52          9           0      -15.743192    0.352456   -0.235514
     53          6           0      -13.863521    1.729774    0.231124
     54         16           0      -12.148754    1.538935    0.412274
     55          6           0      -14.533064    3.012838    0.371875
     56          6           0      -13.968021    4.230308    0.650603
     57          9           0      -12.646412    4.381978    0.837291
     58          6           0      -14.873558    5.318253    0.728945
     59          6           0      -16.150790    4.897528    0.501833
     60         16           0      -16.248439    3.210544    0.198472
     61          1           0       18.625075    3.224599   -0.808964
     62          1           0       16.839740    3.675349   -2.733870
     63          1           0       12.844280   -0.714235    2.750930
     64          1           0       10.822734   -2.345043    1.850488
     65          1           0        4.268481    1.179352   -1.291801
     66          1           0        3.221137   -3.403817   -0.175643
     67          1           0       -3.632098    0.850280   -0.604080
     68          1           0       -4.603379   -3.793069   -1.473515
     69          1           0      -11.742497   -2.893758    0.887181
     70          1           0      -13.813311   -1.592990   -0.380072
     71          1           0      -14.572410    6.343903    0.942626
     72          1           0      -17.059193    5.499887    0.496121
 ---------------------------------------------------------------------

 The electronic state is 1-A.
 Alpha  occ. eigenvalues --  -88.30625 -88.30594 -88.30570 -88.30546 -88.30534
 Alpha  occ. eigenvalues --  -88.30492 -88.30405 -88.30322 -88.29972 -88.29914
 Alpha  occ. eigenvalues --  -24.48911 -24.48896 -24.48829 -24.48780 -24.48575
 Alpha  occ. eigenvalues --  -24.48517 -24.48410 -24.48334 -24.48057 -24.48040
 Alpha  occ. eigenvalues --  -10.18457 -10.18442 -10.18354 -10.18340 -10.18307
 Alpha  occ. eigenvalues --  -10.18273 -10.18122 -10.18055 -10.17837 -10.17771
 Alpha  occ. eigenvalues --  -10.15071 -10.14990 -10.14981 -10.14964 -10.14908
 Alpha  occ. eigenvalues --  -10.14815 -10.14703 -10.14633 -10.14536 -10.14508
 Alpha  occ. eigenvalues --  -10.14451 -10.14384 -10.14248 -10.14173 -10.14093
 Alpha  occ. eigenvalues --  -10.14030 -10.13881 -10.13818 -10.12990 -10.12932
 Alpha  occ. eigenvalues --  -10.11290 -10.11241 -10.11204 -10.11139 -10.11103
 Alpha  occ. eigenvalues --  -10.11063 -10.11042 -10.10995 -10.10613 -10.10555
 Alpha  occ. eigenvalues --   -7.91203  -7.91176  -7.91172  -7.91137  -7.91124
 Alpha  occ. eigenvalues --   -7.91066  -7.90980  -7.90896  -7.90560  -7.90502
 Alpha  occ. eigenvalues --   -5.92989  -5.92959  -5.92948  -5.92911  -5.92906
 Alpha  occ. eigenvalues --   -5.92850  -5.92763  -5.92679  -5.92464  -5.92440
 Alpha  occ. eigenvalues --   -5.92434  -5.92399  -5.92386  -5.92333  -5.92325
 Alpha  occ. eigenvalues --   -5.92275  -5.92240  -5.92155  -5.91981  -5.91963
 Alpha  occ. eigenvalues --   -5.91950  -5.91929  -5.91902  -5.91849  -5.91803
 Alpha  occ. eigenvalues --   -5.91765  -5.91745  -5.91681  -5.91368  -5.91310
 Alpha  occ. eigenvalues --   -1.33182  -1.33155  -1.33085  -1.33052  -1.32838
 Alpha  occ. eigenvalues --   -1.32777  -1.32727  -1.32635  -1.32562  -1.32354
 Alpha  occ. eigenvalues --   -1.05065  -1.04804  -1.04498  -1.04130  -1.03439
 Alpha  occ. eigenvalues --   -1.03036  -1.02487  -1.01957  -1.01443  -1.01255
 Alpha  occ. eigenvalues --   -0.93722  -0.92917  -0.91935  -0.90705  -0.89892
 Alpha  occ. eigenvalues --   -0.88380  -0.88270  -0.88127  -0.87951  -0.87687
 Alpha  occ. eigenvalues --   -0.87156  -0.86909  -0.86821  -0.86603  -0.85967
 Alpha  occ. eigenvalues --   -0.85773  -0.85063  -0.83658  -0.82171  -0.81409
 Alpha  occ. eigenvalues --   -0.76536  -0.76073  -0.75241  -0.74091  -0.72993
 Alpha  occ. eigenvalues --   -0.72848  -0.72604  -0.71946  -0.70968  -0.70561
 Alpha  occ. eigenvalues --   -0.70427  -0.69970  -0.69456  -0.69098  -0.68929
 Alpha  occ. eigenvalues --   -0.68757  -0.68532  -0.67115  -0.66906  -0.66630
 Alpha  occ. eigenvalues --   -0.66364  -0.66282  -0.65508  -0.65006  -0.64453
 Alpha  occ. eigenvalues --   -0.62239  -0.62083  -0.61492  -0.60330  -0.60165
 Alpha  occ. eigenvalues --   -0.60078  -0.59817  -0.59584  -0.59523  -0.59253
 Alpha  occ. eigenvalues --   -0.59032  -0.58895  -0.58740  -0.58634  -0.58568
 Alpha  occ. eigenvalues --   -0.58343  -0.58258  -0.58207  -0.57953  -0.57715
 Alpha  occ. eigenvalues --   -0.57543  -0.57505  -0.57183  -0.56897  -0.56474
 Alpha  occ. eigenvalues --   -0.56419  -0.56398  -0.56027  -0.55987  -0.55856
 Alpha  occ. eigenvalues --   -0.54841  -0.54038  -0.53304  -0.53051  -0.52413
 Alpha  occ. eigenvalues --   -0.52261  -0.51675  -0.50996  -0.50897  -0.50718
 Alpha  occ. eigenvalues --   -0.50462  -0.50333  -0.50167  -0.49919  -0.49882
 Alpha  occ. eigenvalues --   -0.49540  -0.49239  -0.49169  -0.49084  -0.48935
 Alpha  occ. eigenvalues --   -0.48777  -0.48664  -0.48578  -0.48420  -0.48058
 Alpha  occ. eigenvalues --   -0.47739  -0.47457  -0.47110  -0.46731  -0.46407
 Alpha  occ. eigenvalues --   -0.45928  -0.45480  -0.45009  -0.44703  -0.44328
 Alpha  occ. eigenvalues --   -0.44208  -0.42736  -0.41395  -0.40672  -0.38913
 Alpha  occ. eigenvalues --   -0.37406  -0.36402  -0.36391  -0.36285  -0.36011
 Alpha  occ. eigenvalues --   -0.35968  -0.35938  -0.35855  -0.35708  -0.35516
 Alpha  occ. eigenvalues --   -0.35437  -0.33706  -0.31932  -0.30008  -0.28698
 Alpha  occ. eigenvalues --   -0.27511
 Alpha virt. eigenvalues --   -0.02551  -0.01206   0.00056   0.01739   0.03948
 Alpha virt. eigenvalues --    0.04774   0.06441   0.07663   0.07953   0.08344
 Alpha virt. eigenvalues --    0.08578   0.09467   0.09736   0.09915   0.10349

  Beta  occ. eigenvalues --  -88.30625 -88.30594 -88.30570 -88.30546 -88.30534
  Beta  occ. eigenvalues --  -88.30492 -88.30405 -88.30322 -88.29972 -88.29914
  Beta  occ. eigenvalues --  -24.48911 -24.48896 -24.48829 -24.48780 -24.48575
  Beta  occ. eigenvalues --  -24.48517 -24.48410 -24.48334 -24.48057 -24.48040
  Beta  occ. eigenvalues --  -10.18457 -10.18442 -10.18354 -10.18340 -10.18307
  Beta  occ. eigenvalues --  -10.18273 -10.18122 -10.18055 -10.17837 -10.17771
  Beta  occ. eigenvalues --  -10.15071 -10.14990 -10.14981 -10.14964 -10.14908
  Beta  occ. eigenvalues --  -10.14815 -10.14703 -10.14633 -10.14536 -10.14508
  Beta  occ. eigenvalues --  -10.14451 -10.14384 -10.14248 -10.14173 -10.14093
  Beta  occ. eigenvalues --  -10.14030 -10.13881 -10.13818 -10.12990 -10.12932
  Beta  occ. eigenvalues --  -10.11290 -10.11241 -10.11204 -10.11139 -10.11103
  Beta  occ. eigenvalues --  -10.11063 -10.11042 -10.10995 -10.10613 -10.10555
  Beta  occ. eigenvalues --   -7.91203  -7.91176  -7.91172  -7.91137  -7.91124
  Beta  occ. eigenvalues --   -7.91066  -7.90980  -7.90896  -7.90560  -7.90502
  Beta  occ. eigenvalues --   -5.92989  -5.92959  -5.92948  -5.92911  -5.92906
  Beta  occ. eigenvalues --   -5.92850  -5.92763  -5.92679  -5.92464  -5.92440
  Beta  occ. eigenvalues --   -5.92434  -5.92399  -5.92386  -5.92333  -5.92325
  Beta  occ. eigenvalues --   -5.92275  -5.92240  -5.92155  -5.91981  -5.91963
  Beta  occ. eigenvalues --   -5.91950  -5.91929  -5.91902  -5.91849  -5.91803
  Beta  occ. eigenvalues --   -5.91765  -5.91745  -5.91681  -5.91368  -5.91310
  Beta  occ. eigenvalues --   -1.33182  -1.33155  -1.33085  -1.33052  -1.32838
  Beta  occ. eigenvalues --   -1.32777  -1.32727  -1.32635  -1.32562  -1.32354
  Beta  occ. eigenvalues --   -1.05065  -1.04804  -1.04498  -1.04130  -1.03439
  Beta  occ. eigenvalues --   -1.03036  -1.02487  -1.01957  -1.01443  -1.01255
  Beta  occ. eigenvalues --   -0.93722  -0.92917  -0.91935  -0.90705  -0.89892
  Beta  occ. eigenvalues --   -0.88380  -0.88270  -0.88127  -0.87951  -0.87687
  Beta  occ. eigenvalues --   -0.87156  -0.86909  -0.86821  -0.86603  -0.85967
  Beta  occ. eigenvalues --   -0.85773  -0.85063  -0.83658  -0.82171  -0.81409
  Beta  occ. eigenvalues --   -0.76536  -0.76073  -0.75241  -0.74091  -0.72993
  Beta  occ. eigenvalues --   -0.72848  -0.72604  -0.71946  -0.70968  -0.70561
  Beta  occ. eigenvalues --   -0.70427  -0.69970  -0.69456  -0.69098  -0.68929
  Beta  occ. eigenvalues --   -0.68757  -0.68532  -0.67115  -0.66906  -0.66630
  Beta  occ. eigenvalues --   -0.66364  -0.66282  -0.65508  -0.65006  -0.64453
  Beta  occ. eigenvalues --   -0.62239  -0.62083  -0.61492  -0.60330  -0.60165
  Beta  occ. eigenvalues --   -0.60078  -0.59817  -0.59584  -0.59523  -0.59253
  Beta  occ. eigenvalues --   -0.59032  -0.58895  -0.58740  -0.58634  -0.58568
  Beta  occ. eigenvalues --   -0.58343  -0.58258  -0.58207  -0.57953  -0.57715
  Beta  occ. eigenvalues --   -0.57543  -0.57505  -0.57183  -0.56897  -0.56474
  Beta  occ. eigenvalues --   -0.56419  -0.56398  -0.56027  -0.55987  -0.55856
  Beta  occ. eigenvalues --   -0.54841  -0.54038  -0.53304  -0.53051  -0.52413
  Beta  occ. eigenvalues --   -0.52261  -0.51675  -0.50996  -0.50897  -0.50718
  Beta  occ. eigenvalues --   -0.50462  -0.50333  -0.50167  -0.49919  -0.49882
  Beta  occ. eigenvalues --   -0.49540  -0.49239  -0.49169  -0.49084  -0.48935
  Beta  occ. eigenvalues --   -0.48777  -0.48664  -0.48578  -0.48420  -0.48058
  Beta  occ. eigenvalues --   -0.47739  -0.47457  -0.47110  -0.46731  -0.46407
  Beta  occ. eigenvalues --   -0.45928  -0.45480  -0.45009  -0.44703  -0.44328
  Beta  occ. eigenvalues --   -0.44208  -0.42736  -0.41395  -0.40672  -0.38913
  Beta  occ. eigenvalues --   -0.37406  -0.36402  -0.36391  -0.36285  -0.36011
  Beta  occ. eigenvalues --   -0.35968  -0.35938  -0.35855  -0.35708  -0.35516
  Beta  occ. eigenvalues --   -0.35437  -0.33706  -0.31932  -0.30008  -0.28698
  Beta  occ. eigenvalues --   -0.27511
  Beta virt. eigenvalues --   -0.02551  -0.01206   0.00056   0.01739   0.03948
  Beta virt. eigenvalues --    0.04774   0.06441   0.07663   0.07953   0.08344
  Beta virt. eigenvalues --    0.08578   0.09467   0.09736   0.09915   0.10349

 Mulliken charges and spin densities:
               1          2
     1  C   -0.132943  -0.000000
     2  C    0.057286   0.000000
     3  C    0.098761  -0.000000
     4  F   -0.122429   0.000000
     5  C   -0.150451  -0.000000
     6  S    0.190081   0.000000
     7  C   -0.128054  -0.000000
     8  C    0.118951   0.000000
     9  F   -0.120747  -0.000000
    10  C    0.042360  -0.000000
    11  C   -0.130164   0.000000
    12  S    0.207734   0.000000
    13  C   -0.126470  -0.000000
    14  C    0.044045   0.000000
    15  C    0.117404  -0.000000
    16  F   -0.120136   0.000000
    17  C   -0.139193   0.000000
    18  S    0.210055  -0.000000
    19  C   -0.138205  -0.000000
    20  C    0.116646   0.000000
    21  F   -0.117871   0.000000
    22  C    0.042635  -0.000000
    23  C   -0.127151   0.000000
    24  S    0.200864  -0.000000
    25  C   -0.126587   0.000000
    26  C    0.042695  -0.000000
    27  C    0.116217   0.000000
    28  F   -0.118825   0.000000
    29  C   -0.137516  -0.000000
    30  S    0.201837   0.000000
    31  C   -0.137141  -0.000000
    32  C    0.115327  -0.000000
    33  F   -0.118917   0.000000
    34  C    0.043974   0.000000
    35  C   -0.128104  -0.000000
    36  S    0.203820   0.000000
    37  C   -0.121555   0.000000
    38  C    0.026941   0.000000
    39  C    0.144045  -0.000000
    40  F   -0.106765  -0.000000
    41  C   -0.168548   0.000000
    42  S    0.202095  -0.000000
    43  C   -0.171163  -0.000000
    44  C    0.145673   0.000000
    45  F   -0.107283   0.000000
    46  C    0.028849  -0.000000
    47  C   -0.119855  -0.000000
    48  S    0.206605   0.000000
    49  C   -0.131570   0.000000
    50  C    0.043157  -0.000000
    51  C    0.119112   0.000000
    52  F   -0.120424  -0.000000
    53  C   -0.127970   0.000000
    54  S    0.206219  -0.000000
    55  C   -0.150434  -0.000000
    56  C    0.098643   0.000000
    57  F   -0.122799  -0.000000
    58  C    0.057276   0.000000
    59  C   -0.132840  -0.000000
    60  S    0.190584   0.000000
    61  H    0.044094  -0.000000
    62  H    0.017629   0.000000
    63  H    0.012426  -0.000000
    64  H    0.013230   0.000000
    65  H    0.021326   0.000000
    66  H    0.021354   0.000000
    67  H    0.020112   0.000000
    68  H    0.022153   0.000000
    69  H    0.014514  -0.000000
    70  H    0.013406  -0.000000
    71  H    0.017680   0.000000
    72  H    0.044297   0.000000
 Sum of Mulliken charges =  -0.00000  -0.00000

 Dipole moment (field-independent basis, Debye):
    X=              0.3045    Y=              1.6582    Z=             -0.1237  Tot=              1.6904
 Quadrupole moment (field-independent basis, Debye-Ang):
   XX=           -303.8066   YY=           -381.9096   ZZ=           -402.3560
   XY=            -16.0667   XZ=             -5.9725   YZ=             -3.7577

 Normal termination of Gaussian 16 at Fri Jul 24 16:53:06 2020.
