 Gaussian 16, Revision A.03,
 Gaussian 16:  EM64L-G16RevA.03 25-Dec-2016

 ---------------------------------------------------------------
 #P uLC-wPBE/cc-pVDZ iop(3/107=0446900000, 3/108=0446900000) opt
 ---------------------------------------------------------------

 -------------
 H10 C11 S1 O1
 -------------
 Symbolic Z-matrix:
 Charge =  0 Multiplicity = 1

 SCF Done:  E(ULC-wPBE) =  -898.131036400     A.U. after   16 cycles
 SCF Done:  E(ULC-wPBE) =  -898.149806121     A.U. after   14 cycles
 SCF Done:  E(ULC-wPBE) =  -898.151931974     A.U. after   14 cycles
 SCF Done:  E(ULC-wPBE) =  -898.152346107     A.U. after   14 cycles
 SCF Done:  E(ULC-wPBE) =  -898.152536285     A.U. after   13 cycles
 SCF Done:  E(ULC-wPBE) =  -898.152632394     A.U. after   13 cycles
 SCF Done:  E(ULC-wPBE) =  -898.152659278     A.U. after   12 cycles
 SCF Done:  E(ULC-wPBE) =  -898.152663997     A.U. after   12 cycles
 SCF Done:  E(ULC-wPBE) =  -898.152664744     A.U. after    8 cycles
 SCF Done:  E(ULC-wPBE) =  -898.152664917     A.U. after    9 cycles
 SCF Done:  E(ULC-wPBE) =  -898.152664994     A.U. after    8 cycles
 SCF Done:  E(ULC-wPBE) =  -898.152665040     A.U. after    8 cycles
 Optimization completed.
    -- Stationary point found.

                         Standard orientation:
 ---------------------------------------------------------------------
 Center     Atomic      Atomic             Coordinates (Angstroms)
 Number     Number       Type             X           Y           Z
 ---------------------------------------------------------------------
      1          6           0       -3.030355   -1.349117    0.078287
      2          6           0       -2.006362   -2.264640    0.228170
      3          6           0       -0.695282   -1.812505    0.255907
      4          6           0       -0.376101   -0.464697    0.132236
      5          6           0       -1.432243    0.453297   -0.014313
      6          8           0       -1.093209    1.757550   -0.124976
      7          6           0       -2.110192    2.696966   -0.357601
      8          6           0       -2.747004    0.004794   -0.041906
      9          6           0        1.032748   -0.030935    0.140650
     10          6           0        1.594518    1.108540    0.636932
     11          6           0        3.009070    1.144052    0.490636
     12          6           0        3.497051    0.036035   -0.122898
     13         16           0        2.249292   -1.057606   -0.529594
     14          1           0       -4.068087   -1.680155    0.056679
     15          1           0       -2.219826   -3.327173    0.329706
     16          1           0        0.115441   -2.528860    0.388286
     17          1           0       -2.657855    2.478514   -1.285841
     18          1           0       -2.821362    2.743258    0.480209
     19          1           0       -1.613788    3.666480   -0.456821
     20          1           0       -3.565492    0.710359   -0.158199
     21          1           0        1.008770    1.897101    1.097398
     22          1           0        3.634151    1.966266    0.831158
     23          1           0        4.529957   -0.195227   -0.365859
 ---------------------------------------------------------------------

 The electronic state is 1-A.
 Alpha  occ. eigenvalues --  -88.33594 -19.03947 -10.21341 -10.20278 -10.17437
 Alpha  occ. eigenvalues --  -10.16619 -10.16158 -10.15277 -10.15143 -10.14781
 Alpha  occ. eigenvalues --  -10.14305 -10.14231 -10.13873  -7.94500  -5.95806
 Alpha  occ. eigenvalues --   -5.95264  -5.94886  -1.23780  -1.06178  -1.03123
 Alpha  occ. eigenvalues --   -0.94600  -0.92136  -0.89211  -0.87702  -0.85503
 Alpha  occ. eigenvalues --   -0.77248  -0.74867  -0.70263  -0.69713  -0.66919
 Alpha  occ. eigenvalues --   -0.64608  -0.62542  -0.61975  -0.60477  -0.58128
 Alpha  occ. eigenvalues --   -0.55479  -0.54092  -0.53686  -0.51898  -0.51014
 Alpha  occ. eigenvalues --   -0.50296  -0.49596  -0.48177  -0.46087  -0.45544
 Alpha  occ. eigenvalues --   -0.44243  -0.38889  -0.35427  -0.34360  -0.30908
 Alpha virt. eigenvalues --    0.04763   0.09019   0.11159   0.15248   0.15696
 Alpha virt. eigenvalues --    0.17294   0.17457   0.18330   0.20194   0.21400
 Alpha virt. eigenvalues --    0.21832   0.22721   0.23071   0.23980   0.25951

  Beta  occ. eigenvalues --  -88.33594 -19.03947 -10.21341 -10.20278 -10.17437
  Beta  occ. eigenvalues --  -10.16619 -10.16158 -10.15277 -10.15143 -10.14781
  Beta  occ. eigenvalues --  -10.14305 -10.14231 -10.13873  -7.94500  -5.95806
  Beta  occ. eigenvalues --   -5.95264  -5.94886  -1.23780  -1.06178  -1.03123
  Beta  occ. eigenvalues --   -0.94600  -0.92136  -0.89211  -0.87702  -0.85503
  Beta  occ. eigenvalues --   -0.77248  -0.74867  -0.70263  -0.69713  -0.66919
  Beta  occ. eigenvalues --   -0.64608  -0.62542  -0.61975  -0.60477  -0.58128
  Beta  occ. eigenvalues --   -0.55479  -0.54092  -0.53686  -0.51898  -0.51014
  Beta  occ. eigenvalues --   -0.50296  -0.49596  -0.48177  -0.46087  -0.45544
  Beta  occ. eigenvalues --   -0.44243  -0.38889  -0.35427  -0.34360  -0.30908
  Beta virt. eigenvalues --    0.04763   0.09019   0.11159   0.15248   0.15696
  Beta virt. eigenvalues --    0.17294   0.17457   0.18330   0.20194   0.21400
  Beta virt. eigenvalues --    0.21832   0.22721   0.23071   0.23980   0.25951

 Mulliken charges and spin densities:
               1          2
     1  C    0.003073  -0.000000
     2  C   -0.002271   0.000000
     3  C   -0.006043  -0.000000
     4  C    0.006397   0.000000
     5  C    0.104276  -0.000000
     6  O   -0.259779  -0.000000
     7  C    0.036947   0.000000
     8  C   -0.058120   0.000000
     9  C   -0.148197  -0.000000
    10  C    0.004181  -0.000000
    11  C    0.036428   0.000000
    12  C   -0.153470   0.000000
    13  S    0.145557   0.000000
    14  H    0.011695   0.000000
    15  H    0.008064   0.000000
    16  H    0.016011  -0.000000
    17  H    0.054572   0.000000
    18  H    0.053191  -0.000000
    19  H    0.066233  -0.000000
    20  H    0.014450   0.000000
    21  H    0.010275   0.000000
    22  H    0.012328  -0.000000
    23  H    0.044201  -0.000000
 Sum of Mulliken charges =  -0.00000   0.00000

 Dipole moment (field-independent basis, Debye):
    X=             -1.5180    Y=              1.4097    Z=              0.0163  Tot=              2.0717
 Quadrupole moment (field-independent basis, Debye-Ang):
   XX=            -69.2001   YY=            -72.7032   ZZ=            -86.4879
   XY=             -2.6393   XZ=              0.7895   YZ=              0.3645

 Normal termination of Gaussian 16 at Fri Jul 24 16:18:32 2020.
