 Gaussian 16, Revision A.03,
 Gaussian 16:  EM64L-G16RevA.03 25-Dec-2016

 ---------------------------------------------------------------
 #P uLC-wPBE/cc-pVDZ iop(3/107=0053700000, 3/108=0053700000) opt
 ---------------------------------------------------------------

 -------------
 H65 C84 N7 O7
 -------------
 Symbolic Z-matrix:
 Charge =  0 Multiplicity = 1

 SCF Done:  E(ULC-wPBE) =  -4145.42081418     A.U. after   16 cycles
 SCF Done:  E(ULC-wPBE) =  -4145.53392973     A.U. after   15 cycles
 SCF Done:  E(ULC-wPBE) =  -4145.65524263     A.U. after   14 cycles
 SCF Done:  E(ULC-wPBE) =  -4145.69872375     A.U. after   16 cycles
 SCF Done:  E(ULC-wPBE) =  -4145.71263759     A.U. after   16 cycles
 SCF Done:  E(ULC-wPBE) =  -4145.72190487     A.U. after   18 cycles
 SCF Done:  E(ULC-wPBE) =  -4145.72637702     A.U. after   17 cycles
 SCF Done:  E(ULC-wPBE) =  -4145.72891773     A.U. after   16 cycles
 SCF Done:  E(ULC-wPBE) =  -4145.73138327     A.U. after   18 cycles
 SCF Done:  E(ULC-wPBE) =  -4145.73195271     A.U. after   12 cycles
 SCF Done:  E(ULC-wPBE) =  -4145.73268928     A.U. after   12 cycles
 SCF Done:  E(ULC-wPBE) =  -4145.73269142     A.U. after   12 cycles
 SCF Done:  E(ULC-wPBE) =  -4145.73269354     A.U. after   10 cycles
 SCF Done:  E(ULC-wPBE) =  -4145.73269356     A.U. after    7 cycles
 SCF Done:  E(ULC-wPBE) =  -4145.73269367     A.U. after    7 cycles
 SCF Done:  E(ULC-wPBE) =  -4145.73269375     A.U. after    7 cycles
 SCF Done:  E(ULC-wPBE) =  -4145.73269388     A.U. after    8 cycles
 SCF Done:  E(ULC-wPBE) =  -4145.73269384     A.U. after    6 cycles
 SCF Done:  E(ULC-wPBE) =  -4145.73269389     A.U. after    6 cycles
 SCF Done:  E(ULC-wPBE) =  -4145.73269392     A.U. after    6 cycles
 Optimization completed.
    -- Stationary point found.

                         Standard orientation:
 ---------------------------------------------------------------------
 Center     Atomic      Atomic             Coordinates (Angstroms)
 Number     Number       Type             X           Y           Z
 ---------------------------------------------------------------------
      1          6           0      -29.083584   -2.489007   -0.943045
      2          6           0      -28.433044   -3.582948   -0.357071
      3          6           0      -27.054556   -3.513912   -0.123836
      4          6           0      -26.353059   -2.339189   -0.485622
      5          7           0      -26.981775   -1.285722   -1.068679
      6          6           0      -28.303376   -1.372445   -1.282122
      7          6           0      -24.880457   -2.182626   -0.311033
      8          6           0      -24.204391   -1.235001   -1.115362
      9          6           0      -22.824624   -1.043847   -1.041031
     10          6           0      -22.035362   -1.799340   -0.142075
     11          6           0      -22.700800   -2.733479    0.678818
     12          6           0      -24.087022   -2.925501    0.602257
     13          8           0      -24.643320   -3.877509    1.451333
     14          6           0      -25.073173   -3.330548    2.707087
     15          6           0      -20.569718   -1.617875   -0.059286
     16          6           0      -19.685198   -2.675321    0.234820
     17          6           0      -18.308149   -2.449125    0.291758
     18          6           0      -17.803003   -1.148845    0.049987
     19          7           0      -18.651361   -0.117184   -0.208735
     20          6           0      -19.964942   -0.353343   -0.257955
     21          6           0      -16.359759   -0.781440    0.091102
     22          6           0      -16.028254    0.589747    0.172929
     23          6           0      -14.711906    1.048367    0.218593
     24          6           0      -13.637765    0.134077    0.172878
     25          6           0      -13.941602   -1.241243    0.078025
     26          6           0      -15.269442   -1.702376    0.035238
     27          8           0      -15.572758   -3.037222   -0.065783
     28          6           0      -14.499879   -3.967582   -0.200386
     29          6           0      -12.232877    0.595076    0.217983
     30          6           0      -11.830089    1.726641    0.956394
     31          6           0      -10.492844    2.129408    0.959051
     32          6           0       -9.538206    1.390428    0.219470
     33          7           0       -9.916798    0.294903   -0.493000
     34          6           0      -11.201689   -0.069533   -0.488485
     35          6           0       -8.080434    1.695875    0.177487
     36          6           0       -7.208420    0.696089   -0.308275
     37          6           0       -5.826578    0.869753   -0.388554
     38          6           0       -5.239129    2.088516    0.013310
     39          6           0       -6.090055    3.109744    0.488539
     40          6           0       -7.482072    2.931043    0.572989
     41          8           0       -8.317373    3.922235    1.025959
     42          6           0       -7.748748    5.185129    1.364249
     43          6           0       -3.776738    2.299617   -0.058565
     44          6           0       -3.196386    3.548951   -0.357975
     45          6           0       -1.807914    3.686765   -0.421454
     46          6           0       -0.983078    2.560905   -0.185237
     47          7           0       -1.533170    1.356967    0.128310
     48          6           0       -2.862956    1.245768    0.185553
     49          6           0        0.506174    2.584679   -0.212377
     50          6           0        1.196714    1.505670    0.383250
     51          6           0        2.589041    1.423611    0.415719
     52          6           0        3.374754    2.440530   -0.167694
     53          6           0        2.708511    3.523478   -0.781617
     54          6           0        1.305426    3.605549   -0.811365
     55          8           0        0.648429    4.640145   -1.431302
     56          6           0        1.425011    5.629038   -2.103156
     57          6           0        4.852759    2.383747   -0.144837
     58          6           0        5.661273    3.534168   -0.043313
     59          6           0        7.053506    3.422287   -0.035774
     60          6           0        7.651735    2.142347   -0.124867
     61          7           0        6.879575    1.025992   -0.217094
     62          6           0        5.550256    1.154259   -0.228576
     63          6           0        9.119726    1.890794   -0.086516
     64          6           0        9.558460    0.569557    0.154188
     65          6           0       10.907279    0.218661    0.215066
     66          6           0       11.905687    1.198220    0.026815
     67          6           0       11.493659    2.524235   -0.228863
     68          6           0       10.133907    2.875930   -0.288951
     69          8           0        9.724388    4.157329   -0.566944
     70          6           0       10.719133    5.141835   -0.837925
     71          6           0       13.343485    0.856163    0.089306
     72          6           0       14.320237    1.740390    0.590704
     73          6           0       15.663689    1.360413    0.632548
     74          6           0       16.040927    0.076963    0.169625
     75          7           0       15.108803   -0.774084   -0.337749
     76          6           0       13.829506   -0.391794   -0.370676
     77          6           0       17.438982   -0.437145    0.151081
     78          6           0       17.718278   -1.567266   -0.649462
     79          6           0       18.990006   -2.133227   -0.742743
     80          6           0       20.067443   -1.584417   -0.014939
     81          6           0       19.811687   -0.462749    0.803476
     82          6           0       18.529978    0.107600    0.894494
     83          8           0       18.265793    1.180795    1.710129
     84          6           0       19.321911    1.690700    2.520554
     85          6           0       21.428018   -2.159512   -0.097550
     86          6           0       22.596391   -1.373959   -0.024975
     87          6           0       23.856460   -1.972032   -0.099625
     88          6           0       23.955350   -3.375288   -0.255632
     89          7           0       22.833873   -4.140774   -0.332798
     90          6           0       21.637834   -3.550895   -0.253211
     91          6           0       25.239948   -4.121254   -0.392596
     92          6           0       25.186259   -5.431295   -0.919092
     93          6           0       26.328334   -6.218532   -1.095208
     94          6           0       27.578989   -5.703267   -0.730431
     95          6           0       27.674869   -4.413186   -0.190681
     96          6           0       26.523156   -3.620115   -0.017161
     97          8           0       26.576933   -2.359421    0.526887
     98          6           0       27.840195   -1.871195    0.971120
     99          1           0      -30.164772   -2.498423   -1.140888
    100          1           0      -28.992515   -4.490817   -0.086745
    101          1           0      -26.510937   -4.353804    0.324795
    102          1           0      -28.769789   -0.491370   -1.755646
    103          1           0      -24.816024   -0.651600   -1.816546
    104          1           0      -22.343086   -0.323728   -1.717710
    105          1           0      -22.148245   -3.328617    1.420003
    106          1           0      -24.224936   -2.855184    3.247756
    107          1           0      -25.459734   -4.178124    3.303858
    108          1           0      -25.880771   -2.577461    2.569579
    109          1           0      -20.075897   -3.690937    0.398037
    110          1           0      -17.621115   -3.270796    0.515093
    111          1           0      -20.599775    0.529496   -0.447490
    112          1           0      -16.870513    1.293799    0.185152
    113          1           0      -14.513664    2.128654    0.258376
    114          1           0      -13.116944   -1.963970    0.069683
    115          1           0      -13.843488   -3.975028    0.697259
    116          1           0      -13.883093   -3.754150   -1.100300
    117          1           0      -14.976625   -4.958268   -0.310319
    118          1           0      -12.566363    2.280874    1.557277
    119          1           0      -10.178504    2.998923    1.544075
    120          1           0      -11.448505   -0.944270   -1.115328
    121          1           0       -7.677743   -0.238795   -0.641409
    122          1           0       -5.200220    0.065062   -0.797862
    123          1           0       -5.643038    4.052345    0.827235
    124          1           0       -8.599145    5.825607    1.660120
    125          1           0       -7.226599    5.645154    0.497042
    126          1           0       -7.037883    5.104465    2.215741
    127          1           0       -3.838054    4.417718   -0.569140
    128          1           0       -1.357821    4.655326   -0.659448
    129          1           0       -3.246004    0.250215    0.468771
    130          1           0        0.576727    0.718499    0.831737
    131          1           0        3.071481    0.579819    0.928101
    132          1           0        3.308142    4.297267   -1.276341
    133          1           0        0.695836    6.334868   -2.540305
    134          1           0        2.091680    6.178457   -1.402528
    135          1           0        2.039537    5.185545   -2.916661
    136          1           0        5.195881    4.525875    0.061858
    137          1           0        7.680115    4.314338    0.058363
    138          1           0        4.982478    0.214137   -0.337179
    139          1           0        8.774417   -0.185463    0.297031
    140          1           0       11.189162   -0.818327    0.444217
    141          1           0       12.259998    3.285303   -0.419929
    142          1           0       10.165996    6.074742   -1.049514
    143          1           0       11.389844    5.303937    0.034415
    144          1           0       11.334375    4.871133   -1.723588
    145          1           0       14.023123    2.727416    0.976237
    146          1           0       16.420834    2.044953    1.026844
    147          1           0       13.127013   -1.116982   -0.816389
    148          1           0       16.873230   -1.988412   -1.209539
    149          1           0       19.156213   -2.988238   -1.412538
    150          1           0       20.631699   -0.054755    1.406965
    151          1           0       19.711037    0.919643    3.220686
    152          1           0       18.878932    2.520120    3.100958
    153          1           0       20.163190    2.081683    1.906880
    154          1           0       22.518849   -0.279399    0.059649
    155          1           0       24.762957   -1.360366   -0.058708
    156          1           0       20.768814   -4.230261   -0.290345
    157          1           0       24.189569   -5.810239   -1.180858
    158          1           0       26.240676   -7.230067   -1.515733
    159          1           0       28.492489   -6.301786   -0.860499
    160          1           0       28.658838   -4.024798    0.099275
    161          1           0       28.277191   -2.521049    1.760529
    162          1           0       28.566691   -1.778952    0.133941
    163          1           0       27.642041   -0.868839    1.392239
 ---------------------------------------------------------------------

 Alpha virt. eigenvalues --    0.39412   0.39880   0.39989   0.40308   0.40517
 Alpha virt. eigenvalues --    0.40650   0.40760   0.40810   0.40921   0.41670
 Alpha virt. eigenvalues --    0.41701   0.42296   0.42353   0.42407   0.42501

  Beta  occ. eigenvalues --  -18.84184 -18.84162 -18.84156 -18.84110 -18.84076
  Beta  occ. eigenvalues --  -18.83905 -18.81978 -14.02536 -14.02200 -14.02197
  Beta  occ. eigenvalues --  -14.02178 -14.02148 -14.02125 -14.01993  -9.99567
  Beta  occ. eigenvalues --   -9.99560  -9.99560  -9.99524  -9.99495  -9.99372
  Beta  occ. eigenvalues --   -9.99338  -9.99312  -9.99297  -9.99217  -9.99157
  Beta  occ. eigenvalues --   -9.99154  -9.98721  -9.98140  -9.97381  -9.97019
  Beta  occ. eigenvalues --   -9.96997  -9.96995  -9.96988  -9.96952  -9.96810
  Beta  occ. eigenvalues --   -9.96388  -9.96042  -9.96037  -9.95979  -9.95959
  Beta  occ. eigenvalues --   -9.95932  -9.95818  -9.94978  -9.94894  -9.94715
  Beta  occ. eigenvalues --   -9.94703  -9.94695  -9.94691  -9.94620  -9.94604
  Beta  occ. eigenvalues --   -9.94572  -9.94549  -9.94545  -9.94526  -9.94492
  Beta  occ. eigenvalues --   -9.94469  -9.94456  -9.94453  -9.94412  -9.94375
  Beta  occ. eigenvalues --   -9.94340  -9.94334  -9.94159  -9.94056  -9.94046
  Beta  occ. eigenvalues --   -9.94036  -9.94036  -9.93976  -9.93780  -9.93750
  Beta  occ. eigenvalues --   -9.93484  -9.93418  -9.93412  -9.93405  -9.93400
  Beta  occ. eigenvalues --   -9.93383  -9.93379  -9.93355  -9.93354  -9.93351
  Beta  occ. eigenvalues --   -9.93335  -9.93322  -9.93317  -9.93224  -9.93179
  Beta  occ. eigenvalues --   -9.93138  -9.92762  -9.92758  -9.92753  -9.92725
  Beta  occ. eigenvalues --   -9.92692  -9.92685  -9.92680  -9.92674  -9.92651
  Beta  occ. eigenvalues --   -9.92591  -9.92437  -9.92330  -1.01744  -1.01727
  Beta  occ. eigenvalues --   -1.01727  -1.01672  -1.01641  -1.01458  -0.99621
  Beta  occ. eigenvalues --   -0.88881  -0.88652  -0.88635  -0.88617  -0.88597
  Beta  occ. eigenvalues --   -0.88568  -0.88437  -0.81537  -0.81457  -0.81330
  Beta  occ. eigenvalues --   -0.81162  -0.80991  -0.80866  -0.80165  -0.77347
  Beta  occ. eigenvalues --   -0.77121  -0.76833  -0.76526  -0.76265  -0.76115
  Beta  occ. eigenvalues --   -0.75644  -0.74256  -0.74174  -0.74072  -0.73891
  Beta  occ. eigenvalues --   -0.73593  -0.73186  -0.72724  -0.71897  -0.71506
  Beta  occ. eigenvalues --   -0.71369  -0.71291  -0.71222  -0.71012  -0.70999
  Beta  occ. eigenvalues --   -0.70755  -0.70442  -0.69846  -0.69194  -0.68648
  Beta  occ. eigenvalues --   -0.68293  -0.67992  -0.66919  -0.66806  -0.66600
  Beta  occ. eigenvalues --   -0.66322  -0.65897  -0.65380  -0.65236  -0.63091
  Beta  occ. eigenvalues --   -0.62359  -0.61507  -0.60681  -0.60419  -0.60245
  Beta  occ. eigenvalues --   -0.60133  -0.60029  -0.59893  -0.59736  -0.59512
  Beta  occ. eigenvalues --   -0.59255  -0.58508  -0.57968  -0.57117  -0.56871
  Beta  occ. eigenvalues --   -0.56646  -0.56419  -0.56178  -0.55962  -0.55766
  Beta  occ. eigenvalues --   -0.55568  -0.55433  -0.55300  -0.55197  -0.55055
  Beta  occ. eigenvalues --   -0.54924  -0.54824  -0.51933  -0.51836  -0.51713
  Beta  occ. eigenvalues --   -0.51595  -0.51497  -0.51350  -0.50907  -0.49239
  Beta  occ. eigenvalues --   -0.48961  -0.48874  -0.48814  -0.48757  -0.48569
  Beta  occ. eigenvalues --   -0.48192  -0.47777  -0.47468  -0.47258  -0.47080
  Beta  occ. eigenvalues --   -0.46975  -0.46539  -0.46399  -0.46266  -0.45904
  Beta  occ. eigenvalues --   -0.45843  -0.45719  -0.45484  -0.45360  -0.45323
  Beta  occ. eigenvalues --   -0.45308  -0.45281  -0.45172  -0.45093  -0.45034
  Beta  occ. eigenvalues --   -0.44785  -0.44525  -0.44480  -0.44378  -0.44248
  Beta  occ. eigenvalues --   -0.44184  -0.43947  -0.43755  -0.43645  -0.43183
  Beta  occ. eigenvalues --   -0.42503  -0.42409  -0.42319  -0.42227  -0.42070
  Beta  occ. eigenvalues --   -0.41959  -0.41801  -0.41716  -0.41574  -0.41401
  Beta  occ. eigenvalues --   -0.41273  -0.41214  -0.41076  -0.40738  -0.40501
  Beta  occ. eigenvalues --   -0.40141  -0.39902  -0.39689  -0.39643  -0.39572
  Beta  occ. eigenvalues --   -0.39466  -0.39310  -0.39275  -0.39192  -0.39116
  Beta  occ. eigenvalues --   -0.39066  -0.38943  -0.38915  -0.38808  -0.38681
  Beta  occ. eigenvalues --   -0.38501  -0.38196  -0.38035  -0.37769  -0.37623
  Beta  occ. eigenvalues --   -0.37223  -0.37059  -0.36980  -0.36845  -0.36792
  Beta  occ. eigenvalues --   -0.36683  -0.36500  -0.36449  -0.36253  -0.36191
  Beta  occ. eigenvalues --   -0.36030  -0.35919  -0.35832  -0.35393  -0.35328
  Beta  occ. eigenvalues --   -0.35287  -0.35230  -0.35183  -0.35109  -0.34974
  Beta  occ. eigenvalues --   -0.34849  -0.33974  -0.33889  -0.33811  -0.33676
  Beta  occ. eigenvalues --   -0.33574  -0.33485  -0.33366  -0.32602  -0.32247
  Beta  occ. eigenvalues --   -0.32222  -0.32103  -0.32079  -0.31991  -0.31784
  Beta  occ. eigenvalues --   -0.31533  -0.31263  -0.31181  -0.31012  -0.30845
  Beta  occ. eigenvalues --   -0.30699  -0.30669  -0.30070  -0.29655  -0.29178
  Beta  occ. eigenvalues --   -0.28777  -0.28471  -0.28230  -0.27916  -0.27815
  Beta  occ. eigenvalues --   -0.27777  -0.27696  -0.27583  -0.27280  -0.26808
  Beta  occ. eigenvalues --   -0.25802  -0.25504  -0.25155  -0.24857  -0.24368
  Beta  occ. eigenvalues --   -0.24044  -0.24011  -0.23960  -0.23894  -0.23808
  Beta  occ. eigenvalues --   -0.23632  -0.23585  -0.23439  -0.23393  -0.23363
  Beta  occ. eigenvalues --   -0.23152  -0.22905  -0.22608  -0.22130  -0.21487
  Beta  occ. eigenvalues --   -0.20875  -0.20457
  Beta virt. eigenvalues --   -0.06765  -0.06286  -0.05583  -0.04720  -0.03822
  Beta virt. eigenvalues --   -0.03062  -0.02629  -0.02574  -0.02315  -0.02235
  Beta virt. eigenvalues --   -0.02151  -0.02051  -0.01825  -0.01289  -0.00696

 Mulliken charges and spin densities:
               1          2
     1  C   -0.022456   0.000000
     2  C    0.075161   0.000000
     3  C    0.008525  -0.000000
     4  C    0.045126   0.000000
     5  N   -0.193983  -0.000000
     6  C    0.088936  -0.000000
     7  C    0.063124   0.000000
     8  C    0.050550  -0.000000
     9  C    0.012440   0.000000
    10  C    0.051331   0.000000
    11  C    0.055163   0.000000
    12  C   -0.024047  -0.000000
    13  O   -0.265890  -0.000000
    14  C    0.072214  -0.000000
    15  C   -0.028262   0.000000
    16  C    0.063507  -0.000000
    17  C    0.026632  -0.000000
    18  C    0.092779   0.000000
    19  N   -0.197736   0.000000
    20  C    0.084470  -0.000000
    21  C    0.011769   0.000000
    22  C    0.066277  -0.000000
    23  C    0.009200   0.000000
    24  C    0.039362  -0.000000
    25  C   -0.031155   0.000000
    26  C    0.066631   0.000000
    27  O   -0.250890   0.000000
    28  C    0.070170  -0.000000
    29  C   -0.027031   0.000000
    30  C    0.065155   0.000000
    31  C    0.025599  -0.000000
    32  C    0.092421   0.000000
    33  N   -0.198228  -0.000000
    34  C    0.081046  -0.000000
    35  C    0.012505   0.000000
    36  C    0.065579  -0.000000
    37  C    0.009469   0.000000
    38  C    0.037922   0.000000
    39  C   -0.029730   0.000000
    40  C    0.066705   0.000000
    41  O   -0.250613  -0.000000
    42  C    0.071230   0.000000
    43  C   -0.029240  -0.000000
    44  C    0.061458  -0.000000
    45  C    0.026713   0.000000
    46  C    0.091695   0.000000
    47  N   -0.196967  -0.000000
    48  C    0.086192  -0.000000
    49  C    0.013860   0.000000
    50  C    0.064725  -0.000000
    51  C    0.009457   0.000000
    52  C    0.039399  -0.000000
    53  C   -0.030706   0.000000
    54  C    0.065201  -0.000000
    55  O   -0.250709  -0.000000
    56  C    0.071403   0.000000
    57  C   -0.027566   0.000000
    58  C    0.060320  -0.000000
    59  C    0.025404   0.000000
    60  C    0.093024  -0.000000
    61  N   -0.197898  -0.000000
    62  C    0.086208  -0.000000
    63  C    0.013738   0.000000
    64  C    0.065216   0.000000
    65  C    0.010061  -0.000000
    66  C    0.039487   0.000000
    67  C   -0.030361  -0.000000
    68  C    0.063749   0.000000
    69  O   -0.251331  -0.000000
    70  C    0.071790  -0.000000
    71  C   -0.029991   0.000000
    72  C    0.060885  -0.000000
    73  C    0.026563  -0.000000
    74  C    0.091848   0.000000
    75  N   -0.196946  -0.000000
    76  C    0.086174   0.000000
    77  C    0.013699  -0.000000
    78  C    0.064718  -0.000000
    79  C    0.009749  -0.000000
    80  C    0.039224   0.000000
    81  C   -0.030536  -0.000000
    82  C    0.064738   0.000000
    83  O   -0.250910  -0.000000
    84  C    0.071536  -0.000000
    85  C   -0.028495   0.000000
    86  C    0.060285   0.000000
    87  C    0.026634  -0.000000
    88  C    0.093235   0.000000
    89  N   -0.197287  -0.000000
    90  C    0.085262  -0.000000
    91  C   -0.000375   0.000000
    92  C    0.056281  -0.000000
    93  C    0.040786  -0.000000
    94  C    0.031442   0.000000
    95  C   -0.014881  -0.000000
    96  C    0.059913  -0.000000
    97  O   -0.249574  -0.000000
    98  C    0.068586  -0.000000
    99  H   -0.017304   0.000000
   100  H   -0.013263  -0.000000
   101  H   -0.011443  -0.000000
   102  H   -0.003901  -0.000000
   103  H   -0.029004  -0.000000
   104  H   -0.028313   0.000000
   105  H   -0.038628  -0.000000
   106  H    0.036272  -0.000000
   107  H    0.045773  -0.000000
   108  H    0.039118   0.000000
   109  H   -0.025121   0.000000
   110  H   -0.025437  -0.000000
   111  H   -0.008406  -0.000000
   112  H   -0.033600   0.000000
   113  H   -0.035377  -0.000000
   114  H   -0.031142   0.000000
   115  H    0.050216   0.000000
   116  H    0.048074   0.000000
   117  H    0.047750   0.000000
   118  H   -0.025764  -0.000000
   119  H   -0.025965   0.000000
   120  H   -0.012205  -0.000000
   121  H   -0.033997   0.000000
   122  H   -0.031767  -0.000000
   123  H   -0.034462  -0.000000
   124  H    0.047814   0.000000
   125  H    0.045138  -0.000000
   126  H    0.049716  -0.000000
   127  H   -0.030519  -0.000000
   128  H   -0.027304  -0.000000
   129  H   -0.007703   0.000000
   130  H   -0.032261  -0.000000
   131  H   -0.031879  -0.000000
   132  H   -0.034290   0.000000
   133  H    0.046988   0.000000
   134  H    0.044100  -0.000000
   135  H    0.050632  -0.000000
   136  H   -0.031034  -0.000000
   137  H   -0.027509   0.000000
   138  H   -0.006822   0.000000
   139  H   -0.032027  -0.000000
   140  H   -0.031319  -0.000000
   141  H   -0.034500  -0.000000
   142  H    0.046134   0.000000
   143  H    0.044620   0.000000
   144  H    0.050370   0.000000
   145  H   -0.031031  -0.000000
   146  H   -0.027540  -0.000000
   147  H   -0.006916  -0.000000
   148  H   -0.032228  -0.000000
   149  H   -0.032051   0.000000
   150  H   -0.034422   0.000000
   151  H    0.050476   0.000000
   152  H    0.046579  -0.000000
   153  H    0.044140  -0.000000
   154  H   -0.031320  -0.000000
   155  H   -0.027444  -0.000000
   156  H   -0.007242  -0.000000
   157  H   -0.032567   0.000000
   158  H   -0.026158   0.000000
   159  H   -0.025142   0.000000
   160  H   -0.024740  -0.000000
   161  H    0.046798  -0.000000
   162  H    0.046316   0.000000
   163  H    0.046183   0.000000
 Sum of Mulliken charges =  -0.00000  -0.00000

 Dipole moment (field-independent basis, Debye):
    X=              2.4163    Y=              7.8080    Z=              3.4261  Tot=              8.8624
 Quadrupole moment (field-independent basis, Debye-Ang):
   XX=           -328.6365   YY=           -485.6599   ZZ=           -561.0973
   XY=            143.2766   XZ=             -2.1763   YZ=             -3.6844

 Normal termination of Gaussian 16 at Sat Jul 25 05:38:17 2020.
