 Gaussian 16, Revision A.03,
 Gaussian 16:  EM64L-G16RevA.03 25-Dec-2016

 ---------------------------------------------------------------
 #P uLC-wPBE/cc-pVDZ iop(3/107=0107000000, 3/108=0107000000) opt
 ---------------------------------------------------------------

 -----------------
 H37 C55 N10 O5 F5
 -----------------
 Symbolic Z-matrix:
 Charge =  0 Multiplicity = 1

 SCF Done:  E(ULC-wPBE) =  -3537.47278227     A.U. after   16 cycles
 SCF Done:  E(ULC-wPBE) =  -3537.56850425     A.U. after   14 cycles
 SCF Done:  E(ULC-wPBE) =  -3537.66128759     A.U. after   15 cycles
 SCF Done:  E(ULC-wPBE) =  -3537.68722764     A.U. after   15 cycles
 SCF Done:  E(ULC-wPBE) =  -3537.69456229     A.U. after   17 cycles
 SCF Done:  E(ULC-wPBE) =  -3537.69779593     A.U. after   17 cycles
 SCF Done:  E(ULC-wPBE) =  -3537.69958923     A.U. after   17 cycles
 SCF Done:  E(ULC-wPBE) =  -3537.70128247     A.U. after   14 cycles
 SCF Done:  E(ULC-wPBE) =  -3537.70300739     A.U. after   18 cycles
 SCF Done:  E(ULC-wPBE) =  -3537.70326571     A.U. after   16 cycles
 SCF Done:  E(ULC-wPBE) =  -3537.70357774     A.U. after   12 cycles
 SCF Done:  E(ULC-wPBE) =  -3537.70371032     A.U. after   13 cycles
 SCF Done:  E(ULC-wPBE) =  -3537.70374259     A.U. after   12 cycles
 SCF Done:  E(ULC-wPBE) =  -3537.70375257     A.U. after   10 cycles
 SCF Done:  E(ULC-wPBE) =  -3537.70375512     A.U. after   10 cycles
 SCF Done:  E(ULC-wPBE) =  -3537.70375466     A.U. after   10 cycles
 SCF Done:  E(ULC-wPBE) =  -3537.70375503     A.U. after    7 cycles
 SCF Done:  E(ULC-wPBE) =  -3537.70375509     A.U. after    6 cycles
 SCF Done:  E(ULC-wPBE) =  -3537.70375512     A.U. after    6 cycles
 SCF Done:  E(ULC-wPBE) =  -3537.70375521     A.U. after    5 cycles
 Optimization completed.
    -- Stationary point found.

                         Standard orientation:
 ---------------------------------------------------------------------
 Center     Atomic      Atomic             Coordinates (Angstroms)
 Number     Number       Type             X           Y           Z
 ---------------------------------------------------------------------
      1          6           0      -20.468350   -1.653944    0.809001
      2          6           0      -19.654931   -1.866213    1.927409
      3          6           0      -18.305515   -1.524890    1.827787
      4          9           0      -17.511741   -1.689708    2.905904
      5          6           0      -17.786439   -0.987656    0.630896
      6          7           0      -18.587363   -0.775442   -0.435656
      7          6           0      -19.886508   -1.102689   -0.341536
      8          6           0      -16.335968   -0.666697    0.486564
      9          7           0      -15.466513   -1.594267    0.940541
     10          6           0      -14.155753   -1.371444    0.787589
     11          6           0      -13.609248   -0.217099    0.182166
     12          6           0      -14.523009    0.757966   -0.255624
     13          6           0      -15.899680    0.547623   -0.099903
     14          8           0      -16.794894    1.534634   -0.431321
     15          6           0      -17.057078    1.659833   -1.838604
     16          6           0      -12.145085   -0.040646    0.041907
     17          6           0      -11.528094    1.214282    0.198322
     18          6           0      -10.145295    1.304574    0.057100
     19          9           0       -9.561621    2.514572    0.180391
     20          6           0       -9.370986    0.160277   -0.227014
     21          7           0       -9.967822   -1.038985   -0.397994
     22          6           0      -11.298064   -1.128139   -0.268890
     23          6           0       -7.883794    0.220209   -0.313192
     24          7           0       -7.253218    0.931900    0.645980
     25          6           0       -5.916284    0.979275    0.629640
     26          6           0       -5.106026    0.346722   -0.340589
     27          6           0       -5.774201   -0.373779   -1.347048
     28          6           0       -7.174328   -0.441455   -1.346261
     29          8           0       -7.841912   -1.042104   -2.384727
     30          6           0       -7.848609   -2.477967   -2.343375
     31          6           0       -3.628652    0.444240   -0.299145
     32          6           0       -2.972191    1.617066    0.118942
     33          6           0       -1.579930    1.628071    0.134177
     34          9           0       -0.942723    2.741481    0.568465
     35          6           0       -0.838165    0.503430   -0.273927
     36          7           0       -1.467003   -0.628900   -0.651969
     37          6           0       -2.805645   -0.647486   -0.659160
     38          6           0        0.656447    0.480832   -0.254850
     39          7           0        1.228773   -0.549622    0.388174
     40          6           0        2.567319   -0.612887    0.436300
     41          6           0        3.423557    0.345863   -0.142627
     42          6           0        2.821680    1.411558   -0.841683
     43          6           0        1.422598    1.478723   -0.918033
     44          8           0        0.726162    2.429838   -1.599822
     45          6           0        1.469335    3.467933   -2.236032
     46          6           0        4.896580    0.227981   -0.038862
     47          6           0        5.519919   -0.263257    1.123741
     48          6           0        6.909528   -0.347901    1.146470
     49          9           0        7.512666   -0.852677    2.249150
     50          6           0        7.682692    0.063662    0.044420
     51          7           0        7.084896    0.511044   -1.079470
     52          6           0        5.748364    0.583674   -1.109904
     53          6           0        9.174844   -0.026329    0.035278
     54          7           0        9.727845   -0.657049   -1.013221
     55          6           0       11.063275   -0.767469   -1.065045
     56          6           0       11.935171   -0.266968   -0.076675
     57          6           0       11.354838    0.419326    1.009098
     58          6           0        9.960428    0.560651    1.065171
     59          8           0        9.286338    1.239483    2.035123
     60          6           0       10.046163    1.790937    3.108370
     61          6           0       13.402627   -0.437285   -0.185866
     62          6           0       13.974067   -1.613309   -0.707846
     63          6           0       15.361656   -1.701892   -0.792672
     64          9           0       15.908790   -2.844973   -1.257839
     65          6           0       16.183025   -0.639862   -0.360238
     66          7           0       15.635029    0.485389    0.144774
     67          6           0       14.301086    0.575690    0.218648
     68          6           0       17.670023   -0.707628   -0.484504
     69          7           0       18.145084   -1.096673   -1.679996
     70          6           0       19.477054   -1.134097   -1.861891
     71          6           0       20.393404   -0.788114   -0.863470
     72          6           0       19.912038   -0.401175    0.394456
     73          6           0       18.522478   -0.365268    0.604936
     74          8           0       17.925189   -0.053618    1.787096
     75          6           0       18.770618    0.294992    2.879678
     76          1           0      -21.537219   -1.908123    0.831756
     77          1           0      -20.038804   -2.280481    2.869521
     78          1           0      -20.495976   -0.914622   -1.240107
     79          1           0      -13.486542   -2.147995    1.193307
     80          1           0      -14.179502    1.694802   -0.718403
     81          1           0      -16.119409    1.813770   -2.417169
     82          1           0      -17.703195    2.549726   -1.952065
     83          1           0      -17.589289    0.756525   -2.202175
     84          1           0      -12.099614    2.119960    0.444134
     85          1           0      -11.730718   -2.126682   -0.441810
     86          1           0       -5.447439    1.540531    1.455080
     87          1           0       -5.221298   -0.845562   -2.172107
     88          1           0       -8.316522   -2.810358   -3.288205
     89          1           0       -8.452962   -2.825776   -1.479984
     90          1           0       -6.817492   -2.890843   -2.281918
     91          1           0       -3.520503    2.520320    0.419186
     92          1           0       -3.267518   -1.604430   -0.953796
     93          1           0        2.988923   -1.490668    0.952735
     94          1           0        3.449538    2.183955   -1.303517
     95          1           0        2.058747    4.057679   -1.500907
     96          1           0        2.152890    3.064812   -3.014626
     97          1           0        0.719950    4.123635   -2.712961
     98          1           0        4.946991   -0.567935    2.010008
     99          1           0        5.312270    0.930223   -2.061639
    100          1           0       11.470359   -1.271064   -1.956993
    101          1           0       11.995082    0.820265    1.805022
    102          1           0       10.773946    2.550502    2.748260
    103          1           0        9.313082    2.276594    3.776096
    104          1           0       10.589709    1.001807    3.671915
    105          1           0       13.362245   -2.470863   -1.019254
    106          1           0       13.908360    1.531843    0.603064
    107          1           0       19.820857   -1.454644   -2.858404
    108          1           0       21.474899   -0.824963   -1.057641
    109          1           0       20.612907   -0.140133    1.197449
    110          1           0       19.448746   -0.540745    3.160909
    111          1           0       18.093471    0.514027    3.724096
    112          1           0       19.379737    1.197975    2.655959
 ---------------------------------------------------------------------

 Alpha  occ. eigenvalues --  -24.35461 -24.35413 -24.35363 -24.35288 -24.34770
 Alpha  occ. eigenvalues --  -18.87690 -18.87659 -18.87073 -18.85066 -18.84961
 Alpha  occ. eigenvalues --  -14.07193 -14.07047 -14.06485 -14.06429 -14.06397
 Alpha  occ. eigenvalues --  -14.06353 -14.06240 -14.06044 -14.05947 -14.05580
 Alpha  occ. eigenvalues --  -10.05430 -10.05297 -10.05116 -10.05015 -10.04729
 Alpha  occ. eigenvalues --  -10.03425 -10.03356 -10.02956 -10.02807 -10.02682
 Alpha  occ. eigenvalues --  -10.02637 -10.02604 -10.02276 -10.01148 -10.01103
 Alpha  occ. eigenvalues --  -10.00717 -10.00687 -10.00624 -10.00617 -10.00582
 Alpha  occ. eigenvalues --  -10.00535 -10.00414 -10.00304 -10.00221 -10.00177
 Alpha  occ. eigenvalues --  -10.00023  -9.99921  -9.99899  -9.99782  -9.99736
 Alpha  occ. eigenvalues --   -9.99656  -9.99614  -9.99530  -9.99273  -9.99270
 Alpha  occ. eigenvalues --   -9.99159  -9.99102  -9.99097  -9.98986  -9.98984
 Alpha  occ. eigenvalues --   -9.98969  -9.98925  -9.98910  -9.98799  -9.98723
 Alpha  occ. eigenvalues --   -9.98591  -9.98544  -9.98507  -9.98495  -9.98338
 Alpha  occ. eigenvalues --   -9.98307  -9.98297  -9.98226  -9.97855  -9.97382
 Alpha  occ. eigenvalues --   -1.18865  -1.18754  -1.18743  -1.18654  -1.18196
 Alpha  occ. eigenvalues --   -1.05635  -1.05603  -1.05119  -1.03188  -1.03096
 Alpha  occ. eigenvalues --   -0.93961  -0.93765  -0.93677  -0.93538  -0.93162
 Alpha  occ. eigenvalues --   -0.92367  -0.92157  -0.91814  -0.91591  -0.91345
 Alpha  occ. eigenvalues --   -0.83109  -0.82824  -0.82504  -0.82140  -0.80198
 Alpha  occ. eigenvalues --   -0.79113  -0.79039  -0.78944  -0.78871  -0.78778
 Alpha  occ. eigenvalues --   -0.78298  -0.78253  -0.77946  -0.77815  -0.77555
 Alpha  occ. eigenvalues --   -0.75915  -0.75157  -0.74306  -0.73365  -0.72758
 Alpha  occ. eigenvalues --   -0.71020  -0.70702  -0.70277  -0.69317  -0.69274
 Alpha  occ. eigenvalues --   -0.68431  -0.67534  -0.66391  -0.65424  -0.65294
 Alpha  occ. eigenvalues --   -0.64870  -0.64281  -0.64147  -0.64075  -0.63393
 Alpha  occ. eigenvalues --   -0.62457  -0.62234  -0.61933  -0.61827  -0.61537
 Alpha  occ. eigenvalues --   -0.61090  -0.60651  -0.60422  -0.60061  -0.59855
 Alpha  occ. eigenvalues --   -0.56244  -0.55845  -0.55755  -0.55457  -0.55266
 Alpha  occ. eigenvalues --   -0.55012  -0.54450  -0.54005  -0.53939  -0.53702
 Alpha  occ. eigenvalues --   -0.53578  -0.53322  -0.53034  -0.52853  -0.52505
 Alpha  occ. eigenvalues --   -0.52230  -0.52109  -0.51817  -0.51327  -0.51265
 Alpha  occ. eigenvalues --   -0.51136  -0.50864  -0.50470  -0.50239  -0.50018
 Alpha  occ. eigenvalues --   -0.49614  -0.49196  -0.48770  -0.48721  -0.48654
 Alpha  occ. eigenvalues --   -0.48323  -0.48071  -0.47500  -0.47353  -0.47324
 Alpha  occ. eigenvalues --   -0.47119  -0.46974  -0.46941  -0.46919  -0.46650
 Alpha  occ. eigenvalues --   -0.45962  -0.45471  -0.45137  -0.45078  -0.44830
 Alpha  occ. eigenvalues --   -0.44735  -0.44460  -0.44273  -0.44050  -0.43752
 Alpha  occ. eigenvalues --   -0.43722  -0.43345  -0.43043  -0.43029  -0.42827
 Alpha  occ. eigenvalues --   -0.42781  -0.42757  -0.42484  -0.42253  -0.42104
 Alpha  occ. eigenvalues --   -0.41965  -0.41808  -0.41624  -0.41506  -0.41312
 Alpha  occ. eigenvalues --   -0.41232  -0.41195  -0.40874  -0.40755  -0.40627
 Alpha  occ. eigenvalues --   -0.40578  -0.40348  -0.40190  -0.40134  -0.39846
 Alpha  occ. eigenvalues --   -0.39727  -0.38806  -0.38507  -0.38462  -0.38360
 Alpha  occ. eigenvalues --   -0.38108  -0.36574  -0.36517  -0.36356  -0.36166
 Alpha  occ. eigenvalues --   -0.36157  -0.36129  -0.35785  -0.35530  -0.35074
 Alpha  occ. eigenvalues --   -0.34306  -0.33889  -0.33388  -0.32555  -0.31395
 Alpha  occ. eigenvalues --   -0.31283  -0.31075  -0.30616  -0.30542  -0.30371
 Alpha  occ. eigenvalues --   -0.30200  -0.29518  -0.29402  -0.29003  -0.28611
 Alpha  occ. eigenvalues --   -0.28400  -0.28289  -0.28235  -0.28052  -0.27921
 Alpha  occ. eigenvalues --   -0.27658  -0.27521  -0.26955  -0.26823  -0.26657
 Alpha  occ. eigenvalues --   -0.26335  -0.26222  -0.26183  -0.25899  -0.25373
 Alpha  occ. eigenvalues --   -0.24760
 Alpha virt. eigenvalues --   -0.05090  -0.04298  -0.03276  -0.02228  -0.01308
 Alpha virt. eigenvalues --   -0.00846  -0.00615  -0.00504  -0.00396  -0.00368
 Alpha virt. eigenvalues --    0.00070   0.00181   0.00693   0.00737   0.00864

  Beta  occ. eigenvalues --  -24.35461 -24.35413 -24.35363 -24.35288 -24.34770
  Beta  occ. eigenvalues --  -18.87690 -18.87659 -18.87073 -18.85066 -18.84961
  Beta  occ. eigenvalues --  -14.07193 -14.07047 -14.06485 -14.06429 -14.06397
  Beta  occ. eigenvalues --  -14.06353 -14.06240 -14.06044 -14.05947 -14.05580
  Beta  occ. eigenvalues --  -10.05430 -10.05297 -10.05116 -10.05015 -10.04729
  Beta  occ. eigenvalues --  -10.03425 -10.03356 -10.02956 -10.02807 -10.02682
  Beta  occ. eigenvalues --  -10.02637 -10.02604 -10.02276 -10.01148 -10.01103
  Beta  occ. eigenvalues --  -10.00717 -10.00687 -10.00624 -10.00617 -10.00582
  Beta  occ. eigenvalues --  -10.00535 -10.00414 -10.00304 -10.00221 -10.00177
  Beta  occ. eigenvalues --  -10.00023  -9.99921  -9.99899  -9.99782  -9.99736
  Beta  occ. eigenvalues --   -9.99656  -9.99614  -9.99530  -9.99273  -9.99270
  Beta  occ. eigenvalues --   -9.99159  -9.99102  -9.99097  -9.98986  -9.98984
  Beta  occ. eigenvalues --   -9.98969  -9.98925  -9.98910  -9.98799  -9.98723
  Beta  occ. eigenvalues --   -9.98591  -9.98544  -9.98507  -9.98495  -9.98338
  Beta  occ. eigenvalues --   -9.98307  -9.98297  -9.98226  -9.97855  -9.97382
  Beta  occ. eigenvalues --   -1.18865  -1.18754  -1.18743  -1.18654  -1.18196
  Beta  occ. eigenvalues --   -1.05635  -1.05603  -1.05119  -1.03188  -1.03096
  Beta  occ. eigenvalues --   -0.93961  -0.93765  -0.93677  -0.93538  -0.93162
  Beta  occ. eigenvalues --   -0.92367  -0.92157  -0.91814  -0.91591  -0.91345
  Beta  occ. eigenvalues --   -0.83109  -0.82824  -0.82504  -0.82140  -0.80198
  Beta  occ. eigenvalues --   -0.79113  -0.79039  -0.78944  -0.78871  -0.78778
  Beta  occ. eigenvalues --   -0.78298  -0.78253  -0.77946  -0.77815  -0.77555
  Beta  occ. eigenvalues --   -0.75915  -0.75157  -0.74306  -0.73365  -0.72758
  Beta  occ. eigenvalues --   -0.71020  -0.70702  -0.70277  -0.69317  -0.69274
  Beta  occ. eigenvalues --   -0.68431  -0.67534  -0.66391  -0.65424  -0.65294
  Beta  occ. eigenvalues --   -0.64870  -0.64281  -0.64147  -0.64075  -0.63393
  Beta  occ. eigenvalues --   -0.62457  -0.62234  -0.61933  -0.61827  -0.61537
  Beta  occ. eigenvalues --   -0.61090  -0.60651  -0.60422  -0.60061  -0.59855
  Beta  occ. eigenvalues --   -0.56244  -0.55845  -0.55755  -0.55457  -0.55266
  Beta  occ. eigenvalues --   -0.55012  -0.54450  -0.54005  -0.53939  -0.53702
  Beta  occ. eigenvalues --   -0.53578  -0.53322  -0.53034  -0.52853  -0.52505
  Beta  occ. eigenvalues --   -0.52230  -0.52109  -0.51817  -0.51327  -0.51265
  Beta  occ. eigenvalues --   -0.51136  -0.50864  -0.50470  -0.50239  -0.50018
  Beta  occ. eigenvalues --   -0.49614  -0.49196  -0.48770  -0.48721  -0.48654
  Beta  occ. eigenvalues --   -0.48323  -0.48071  -0.47500  -0.47353  -0.47324
  Beta  occ. eigenvalues --   -0.47119  -0.46974  -0.46941  -0.46919  -0.46650
  Beta  occ. eigenvalues --   -0.45962  -0.45471  -0.45137  -0.45078  -0.44830
  Beta  occ. eigenvalues --   -0.44735  -0.44460  -0.44273  -0.44050  -0.43752
  Beta  occ. eigenvalues --   -0.43722  -0.43345  -0.43043  -0.43029  -0.42827
  Beta  occ. eigenvalues --   -0.42781  -0.42757  -0.42484  -0.42253  -0.42104
  Beta  occ. eigenvalues --   -0.41965  -0.41808  -0.41624  -0.41506  -0.41312
  Beta  occ. eigenvalues --   -0.41232  -0.41195  -0.40874  -0.40755  -0.40627
  Beta  occ. eigenvalues --   -0.40578  -0.40348  -0.40190  -0.40134  -0.39846
  Beta  occ. eigenvalues --   -0.39727  -0.38806  -0.38507  -0.38462  -0.38360
  Beta  occ. eigenvalues --   -0.38108  -0.36574  -0.36517  -0.36356  -0.36166
  Beta  occ. eigenvalues --   -0.36157  -0.36129  -0.35785  -0.35530  -0.35074
  Beta  occ. eigenvalues --   -0.34306  -0.33889  -0.33388  -0.32555  -0.31395
  Beta  occ. eigenvalues --   -0.31283  -0.31075  -0.30616  -0.30542  -0.30371
  Beta  occ. eigenvalues --   -0.30200  -0.29518  -0.29402  -0.29003  -0.28611
  Beta  occ. eigenvalues --   -0.28400  -0.28289  -0.28235  -0.28052  -0.27921
  Beta  occ. eigenvalues --   -0.27658  -0.27521  -0.26955  -0.26823  -0.26657
  Beta  occ. eigenvalues --   -0.26335  -0.26222  -0.26183  -0.25899  -0.25373
  Beta  occ. eigenvalues --   -0.24760
  Beta virt. eigenvalues --   -0.05090  -0.04298  -0.03276  -0.02228  -0.01308
  Beta virt. eigenvalues --   -0.00846  -0.00615  -0.00504  -0.00396  -0.00368
  Beta virt. eigenvalues --    0.00070   0.00181   0.00693   0.00737   0.00864

 Mulliken charges and spin densities:
               1          2
     1  C   -0.011935   0.000000
     2  C    0.061793  -0.000000
     3  C    0.124163   0.000000
     4  F   -0.106339   0.000000
     5  C    0.048786  -0.000000
     6  N   -0.183785  -0.000000
     7  C    0.085671   0.000000
     8  C    0.059526   0.000000
     9  N   -0.180518  -0.000000
    10  C    0.073527   0.000000
    11  C   -0.032579  -0.000000
    12  C    0.110428  -0.000000
    13  C    0.053073  -0.000000
    14  O   -0.246450   0.000000
    15  C    0.070735  -0.000000
    16  C   -0.034985   0.000000
    17  C    0.062339  -0.000000
    18  C    0.129188   0.000000
    19  F   -0.105837  -0.000000
    20  C    0.052546  -0.000000
    21  N   -0.182073   0.000000
    22  C    0.085488   0.000000
    23  C    0.056929  -0.000000
    24  N   -0.181387   0.000000
    25  C    0.071778  -0.000000
    26  C   -0.027216   0.000000
    27  C    0.105964  -0.000000
    28  C    0.054029  -0.000000
    29  O   -0.246402   0.000000
    30  C    0.071414   0.000000
    31  C   -0.034056  -0.000000
    32  C    0.061171  -0.000000
    33  C    0.132319   0.000000
    34  F   -0.119448  -0.000000
    35  C    0.034344  -0.000000
    36  N   -0.163712   0.000000
    37  C    0.079103  -0.000000
    38  C    0.042771   0.000000
    39  N   -0.162688  -0.000000
    40  C    0.073103   0.000000
    41  C   -0.036259   0.000000
    42  C    0.023614  -0.000000
    43  C    0.126199   0.000000
    44  O   -0.229267   0.000000
    45  C    0.061451   0.000000
    46  C   -0.034953   0.000000
    47  C    0.062370  -0.000000
    48  C    0.132380   0.000000
    49  F   -0.119607  -0.000000
    50  C    0.033403  -0.000000
    51  N   -0.164235   0.000000
    52  C    0.075068  -0.000000
    53  C    0.043066  -0.000000
    54  N   -0.162565   0.000000
    55  C    0.073720  -0.000000
    56  C   -0.037609   0.000000
    57  C    0.023339   0.000000
    58  C    0.125331   0.000000
    59  O   -0.229533  -0.000000
    60  C    0.061992  -0.000000
    61  C   -0.031139   0.000000
    62  C    0.057561   0.000000
    63  C    0.134071   0.000000
    64  F   -0.108348   0.000000
    65  C    0.041200  -0.000000
    66  N   -0.169685   0.000000
    67  C    0.069811  -0.000000
    68  C    0.035244   0.000000
    69  N   -0.175654   0.000000
    70  C    0.077333  -0.000000
    71  C   -0.015209  -0.000000
    72  C    0.016365  -0.000000
    73  C    0.120603   0.000000
    74  O   -0.214518   0.000000
    75  C    0.059594   0.000000
    76  H   -0.006961   0.000000
    77  H    0.003457   0.000000
    78  H    0.000893   0.000000
    79  H   -0.000658   0.000000
    80  H   -0.021599   0.000000
    81  H    0.025241  -0.000000
    82  H    0.044678   0.000000
    83  H    0.040092   0.000000
    84  H   -0.006421  -0.000000
    85  H   -0.001384  -0.000000
    86  H   -0.003426  -0.000000
    87  H   -0.016497  -0.000000
    88  H    0.045141  -0.000000
    89  H    0.040543  -0.000000
    90  H    0.025100   0.000000
    91  H   -0.007499   0.000000
    92  H   -0.003671   0.000000
    93  H   -0.005845  -0.000000
    94  H   -0.018262  -0.000000
    95  H    0.050210   0.000000
    96  H    0.048541  -0.000000
    97  H    0.054437   0.000000
    98  H   -0.007529  -0.000000
    99  H   -0.004597  -0.000000
   100  H   -0.004873  -0.000000
   101  H   -0.019885  -0.000000
   102  H    0.046847   0.000000
   103  H    0.053770   0.000000
   104  H    0.049970  -0.000000
   105  H   -0.007101  -0.000000
   106  H   -0.008700  -0.000000
   107  H   -0.004033  -0.000000
   108  H   -0.015812   0.000000
   109  H   -0.012967  -0.000000
   110  H    0.043965  -0.000000
   111  H    0.052015  -0.000000
   112  H    0.046907  -0.000000
 Sum of Mulliken charges =  -0.00000   0.00000

 Dipole moment (field-independent basis, Debye):
    X=              0.2580    Y=              3.8325    Z=              2.4424  Tot=              4.5519
 Quadrupole moment (field-independent basis, Debye-Ang):
   XX=           -244.6764   YY=           -408.2900   ZZ=           -404.2870
   XY=             27.8391   XZ=             90.1364   YZ=             -1.0421

 Normal termination of Gaussian 16 at Sun Jul 26 17:17:12 2020.
