 Gaussian 16, Revision A.03,
 Gaussian 16:  EM64L-G16RevA.03 25-Dec-2016

 ---------------------------------------------------------------
 #P uLC-wPBE/cc-pVDZ iop(3/107=0077400000, 3/108=0077400000) opt
 ---------------------------------------------------------------

 -----------
 H5 C8 S2 F1
 -----------
 Symbolic Z-matrix:
 Charge =  0 Multiplicity = 1

 SCF Done:  E(ULC-wPBE) =  -1203.37998448     A.U. after   15 cycles
 SCF Done:  E(ULC-wPBE) =  -1203.39361907     A.U. after   14 cycles
 SCF Done:  E(ULC-wPBE) =  -1203.39508942     A.U. after   13 cycles
 SCF Done:  E(ULC-wPBE) =  -1203.39525427     A.U. after   12 cycles
 SCF Done:  E(ULC-wPBE) =  -1203.39525483     A.U. after   11 cycles
 SCF Done:  E(ULC-wPBE) =  -1203.39527312     A.U. after   11 cycles
 SCF Done:  E(ULC-wPBE) =  -1203.39527384     A.U. after    8 cycles
 SCF Done:  E(ULC-wPBE) =  -1203.39527397     A.U. after    7 cycles
 Optimization completed.
    -- Stationary point found.

                         Standard orientation:
 ---------------------------------------------------------------------
 Center     Atomic      Atomic             Coordinates (Angstroms)
 Number     Number       Type             X           Y           Z
 ---------------------------------------------------------------------
      1          6           0       -3.285191    0.087385    0.000153
      2          6           0       -2.955234   -1.252515   -0.001139
      3          6           0       -1.548294   -1.472320   -0.001510
      4          6           0       -0.803971   -0.296645   -0.000310
      5         16           0       -1.875417    1.101797    0.001471
      6          6           0        0.636025   -0.139276   -0.000115
      7          6           0        1.399195    1.021297   -0.000596
      8          9           0        0.831315    2.251761   -0.001200
      9          6           0        2.808917    0.837095   -0.000697
     10          6           0        3.136042   -0.500774    0.000175
     11         16           0        1.725324   -1.520360    0.001031
     12          1           0       -4.279505    0.546611    0.000467
     13          1           0       -3.700303   -2.057906   -0.002004
     14          1           0       -1.084467   -2.467544   -0.002696
     15          1           0        3.528813    1.663302   -0.001244
     16          1           0        4.130186   -0.958783    0.000463
 ---------------------------------------------------------------------

 The electronic state is 1-A.
 Alpha  occ. eigenvalues --  -88.15531 -88.14542 -24.34107 -10.02828  -9.98863
 Alpha  occ. eigenvalues --   -9.98664  -9.98324  -9.96972  -9.96199  -9.95125
 Alpha  occ. eigenvalues --   -9.95101  -7.75773  -7.74774  -5.77886  -5.77443
 Alpha  occ. eigenvalues --   -5.76994  -5.76875  -5.76417  -5.76039  -1.17108
 Alpha  occ. eigenvalues --   -0.86597  -0.84323  -0.74486  -0.72082  -0.70982
 Alpha  occ. eigenvalues --   -0.67978  -0.59141  -0.57508  -0.55354  -0.53504
 Alpha  occ. eigenvalues --   -0.51409  -0.47529  -0.45439  -0.45076  -0.44428
 Alpha  occ. eigenvalues --   -0.40823  -0.39913  -0.39412  -0.38396  -0.37084
 Alpha  occ. eigenvalues --   -0.37080  -0.35979  -0.33901  -0.29494  -0.26941
 Alpha  occ. eigenvalues --   -0.26623  -0.22225
 Alpha virt. eigenvalues --   -0.03568   0.01733   0.02485   0.04385   0.06056
 Alpha virt. eigenvalues --    0.07218   0.08756   0.09599   0.09889   0.11809
 Alpha virt. eigenvalues --    0.13987   0.15318   0.15802   0.18654   0.23399

  Beta  occ. eigenvalues --  -88.15531 -88.14542 -24.34107 -10.02828  -9.98863
  Beta  occ. eigenvalues --   -9.98664  -9.98324  -9.96972  -9.96199  -9.95125
  Beta  occ. eigenvalues --   -9.95101  -7.75773  -7.74774  -5.77886  -5.77443
  Beta  occ. eigenvalues --   -5.76994  -5.76875  -5.76417  -5.76039  -1.17108
  Beta  occ. eigenvalues --   -0.86597  -0.84323  -0.74486  -0.72082  -0.70982
  Beta  occ. eigenvalues --   -0.67978  -0.59141  -0.57508  -0.55354  -0.53504
  Beta  occ. eigenvalues --   -0.51409  -0.47529  -0.45439  -0.45076  -0.44428
  Beta  occ. eigenvalues --   -0.40823  -0.39913  -0.39412  -0.38396  -0.37084
  Beta  occ. eigenvalues --   -0.37080  -0.35979  -0.33901  -0.29494  -0.26941
  Beta  occ. eigenvalues --   -0.26623  -0.22225
  Beta virt. eigenvalues --   -0.03568   0.01733   0.02485   0.04385   0.06056
  Beta virt. eigenvalues --    0.07218   0.08756   0.09599   0.09889   0.11809
  Beta virt. eigenvalues --    0.13987   0.15318   0.15802   0.18654   0.23399

 Mulliken charges and spin densities:
               1          2
     1  C   -0.126679   0.000000
     2  C    0.076149  -0.000000
     3  C    0.007644  -0.000000
     4  C   -0.087509  -0.000000
     5  S    0.149888   0.000000
     6  C   -0.109762   0.000000
     7  C    0.087669   0.000000
     8  F   -0.120356  -0.000000
     9  C    0.079297  -0.000000
    10  C   -0.119063   0.000000
    11  S    0.149360  -0.000000
    12  H    0.019302  -0.000000
    13  H   -0.015776   0.000000
    14  H   -0.014871   0.000000
    15  H   -0.001899   0.000000
    16  H    0.026605   0.000000
 Sum of Mulliken charges =  -0.00000  -0.00000

 Dipole moment (field-independent basis, Debye):
    X=              0.6441    Y=             -0.8825    Z=             -0.0002  Tot=              1.0925
 Quadrupole moment (field-independent basis, Debye-Ang):
   XX=            -61.4940   YY=            -73.3687   ZZ=            -80.5991
   XY=              0.4098   XZ=              0.0008   YZ=              0.0042

 Normal termination of Gaussian 16 at Fri Jul 24 14:52:46 2020.
