 Gaussian 16, Revision A.03,
 Gaussian 16:  EM64L-G16RevA.03 25-Dec-2016

 ---------------------------------------------------------------
 #P uLC-wPBE/cc-pVDZ iop(3/107=0414500000, 3/108=0414500000) opt
 ---------------------------------------------------------------

 ---------------
 H16 C42 S14 N14
 ---------------
 Symbolic Z-matrix:
 Charge =  0 Multiplicity = 1

 SCF Done:  E(ULC-wPBE) =  -7947.94517788     A.U. after   17 cycles
 SCF Done:  E(ULC-wPBE) =  -7948.01963630     A.U. after   13 cycles
 SCF Done:  E(ULC-wPBE) =  -7948.08211789     A.U. after   14 cycles
 SCF Done:  E(ULC-wPBE) =  -7948.08545034     A.U. after   13 cycles
 SCF Done:  E(ULC-wPBE) =  -7948.08585870     A.U. after   12 cycles
 SCF Done:  E(ULC-wPBE) =  -7948.08605455     A.U. after   13 cycles
 SCF Done:  E(ULC-wPBE) =  -7948.08644302     A.U. after   12 cycles
 SCF Done:  E(ULC-wPBE) =  -7948.08709972     A.U. after   15 cycles
 SCF Done:  E(ULC-wPBE) =  -7948.08744062     A.U. after   15 cycles
 SCF Done:  E(ULC-wPBE) =  -7948.08764770     A.U. after   14 cycles
 SCF Done:  E(ULC-wPBE) =  -7948.08892064     A.U. after    9 cycles
 SCF Done:  E(ULC-wPBE) =  -7948.08892085     A.U. after    8 cycles
 SCF Done:  E(ULC-wPBE) =  -7948.08892081     A.U. after    7 cycles
 SCF Done:  E(ULC-wPBE) =  -7948.08892072     A.U. after    7 cycles
 SCF Done:  E(ULC-wPBE) =  -7948.08892078     A.U. after    8 cycles
 SCF Done:  E(ULC-wPBE) =  -7948.08892073     A.U. after    7 cycles
 SCF Done:  E(ULC-wPBE) =  -7948.08892062     A.U. after    7 cycles
 SCF Done:  E(ULC-wPBE) =  -7948.08892058     A.U. after    8 cycles
 SCF Done:  E(ULC-wPBE) =  -7948.08892072     A.U. after    9 cycles
 SCF Done:  E(ULC-wPBE) =  -7948.08892068     A.U. after   10 cycles
 Optimization completed.
    -- Stationary point found.

                         Standard orientation:
 ---------------------------------------------------------------------
 Center     Atomic      Atomic             Coordinates (Angstroms)
 Number     Number       Type             X           Y           Z
 ---------------------------------------------------------------------
      1          6           0       25.592075    1.239954    1.100227
      2          6           0       24.785929    2.190307    1.642827
      3          7           0       23.444549    1.991096    1.472047
      4          6           0       23.237217    0.897479    0.804793
      5         16           0       24.649704    0.033278    0.337018
      6          6           0       21.905535    0.408449    0.460853
      7          7           0       21.685485   -0.681328   -0.207689
      8          6           0       20.346228   -0.868710   -0.376901
      9          6           0       19.533862    0.084472    0.168599
     10         16           0       20.502458    1.281210    0.944041
     11          6           0       18.079703    0.160070    0.144733
     12          6           0       17.280401    1.257839    0.297695
     13          7           0       15.938439    1.035123    0.221155
     14          6           0       15.703408   -0.223080    0.008608
     15         16           0       17.093600   -1.231680   -0.101966
     16          6           0       14.363181   -0.781808   -0.129364
     17          7           0       14.127906   -2.039676   -0.346450
     18          6           0       12.786332   -2.259845   -0.437723
     19          6           0       11.988471   -1.162508   -0.279295
     20         16           0       12.973467    0.225400   -0.005852
     21          6           0       10.531208   -1.117202   -0.303211
     22          6           0        9.664389   -2.054695    0.182392
     23          7           0        8.339438   -1.786551    0.011638
     24          6           0        8.185492   -0.647513   -0.591077
     25         16           0        9.637050    0.176581   -1.008563
     26          6           0        6.882887   -0.073685   -0.911049
     27          7           0        6.728225    1.066424   -1.511531
     28          6           0        5.402865    1.343158   -1.664491
     29          6           0        4.536731    0.401511   -1.185856
     30         16           0        5.431865   -0.902014   -0.499864
     31          6           0        3.079885    0.429547   -1.241108
     32          6           0        2.297585    0.912136   -2.251649
     33          7           0        0.952097    0.846207   -2.047219
     34          6           0        0.698667    0.308508   -0.893364
     35         16           0        2.074222   -0.144390    0.035678
     36          6           0       -0.650647    0.087161   -0.385610
     37          7           0       -0.905350   -0.448592    0.768390
     38          6           0       -2.250998   -0.518516    0.969099
     39          6           0       -3.033301   -0.033636   -0.040954
     40         16           0       -2.025866    0.535547   -1.318233
     41          6           0       -4.486270    0.034007   -0.111781
     42          6           0       -5.264745    0.858232   -0.874596
     43          7           0       -6.611299    0.707816   -0.732797
     44          6           0       -6.870478   -0.222605    0.133666
     45         16           0       -5.498849   -0.992742    0.832081
     46          6           0       -8.221643   -0.619543    0.513453
     47          7           0       -8.478916   -1.547351    1.383914
     48          6           0       -9.825238   -1.689264    1.538145
     49          6           0      -10.604244   -0.869660    0.771637
     50         16           0       -9.594177    0.140115   -0.193261
     51          6           0      -12.060852   -0.828636    0.718306
     52          6           0      -12.923614   -1.883940    0.806466
     53          7           0      -14.249875   -1.575531    0.755482
     54          6           0      -14.408546   -0.294714    0.618866
     55         16           0      -12.960473    0.632809    0.556391
     56          6           0      -15.712579    0.352408    0.523004
     57          7           0      -15.868986    1.633213    0.383595
     58          6           0      -17.194363    1.941641    0.312460
     59          6           0      -18.059201    0.888588    0.408720
     60         16           0      -17.162214   -0.571691    0.592738
     61          6           0      -19.516588    0.934743    0.390872
     62          6           0      -20.321932    1.892564    0.937497
     63          7           0      -21.662091    1.717860    0.760238
     64          6           0      -21.888848    0.629490    0.091113
     65         16           0      -20.492088   -0.256340   -0.385018
     66          6           0      -23.224038    0.152258   -0.257139
     67          7           0      -23.439262   -0.938770   -0.925872
     68          6           0      -24.781940   -1.126345   -1.099836
     69          6           0      -25.581111   -0.169500   -0.558378
     70         16           0      -24.630073    1.028302    0.208128
     71          1           0       26.677729    1.192858    1.112789
     72          1           0       25.130783    3.068717    2.185476
     73          1           0       19.994309   -1.737539   -0.932111
     74          1           0       17.645850    2.270912    0.461495
     75          1           0       12.418135   -3.263353   -0.644847
     76          1           0        9.967725   -2.964583    0.697694
     77          1           0        5.098372    2.279654   -2.128953
     78          1           0        2.681083    1.315424   -3.187464
     79          1           0       -2.631540   -0.934442    1.901290
     80          1           0       -4.880408    1.612727   -1.560030
     81          1           0      -10.212109   -2.411808    2.254869
     82          1           0      -12.615746   -2.924680    0.893462
     83          1           0      -17.499539    2.976728    0.168058
     84          1           0      -19.961135    2.749284    1.504488
     85          1           0      -25.133013   -2.001328   -1.644027
     86          1           0      -26.666283   -0.112988   -0.573490
 ---------------------------------------------------------------------

 The electronic state is 1-A.
 Alpha  occ. eigenvalues --  -88.35832 -88.35822 -88.35812 -88.35808 -88.35793
 Alpha  occ. eigenvalues --  -88.35790 -88.35736 -88.35724 -88.35640 -88.35632
 Alpha  occ. eigenvalues --  -88.35401 -88.35390 -88.34994 -88.34971 -14.25011
 Alpha  occ. eigenvalues --  -14.25000 -14.24994 -14.24970 -14.24967 -14.24956
 Alpha  occ. eigenvalues --  -14.24893 -14.24873 -14.24851 -14.24819 -14.24560
 Alpha  occ. eigenvalues --  -14.24521 -14.24189 -14.24160 -10.22322 -10.22306
 Alpha  occ. eigenvalues --  -10.22301 -10.22296 -10.22275 -10.22268 -10.22224
 Alpha  occ. eigenvalues --  -10.22207 -10.22126 -10.22112 -10.21910 -10.21887
 Alpha  occ. eigenvalues --  -10.21476 -10.21449 -10.19747 -10.19727 -10.19666
 Alpha  occ. eigenvalues --  -10.19643 -10.19622 -10.19619 -10.19572 -10.19561
 Alpha  occ. eigenvalues --  -10.19548 -10.19452 -10.19353 -10.19252 -10.18113
 Alpha  occ. eigenvalues --  -10.18107 -10.18093 -10.18077 -10.18046 -10.18041
 Alpha  occ. eigenvalues --  -10.18018 -10.18004 -10.17892 -10.17859 -10.17782
 Alpha  occ. eigenvalues --  -10.17733 -10.17418 -10.17394 -10.17146 -10.17119
 Alpha  occ. eigenvalues --   -7.96665  -7.96658  -7.96645  -7.96644  -7.96625
 Alpha  occ. eigenvalues --   -7.96622  -7.96568  -7.96556  -7.96477  -7.96465
 Alpha  occ. eigenvalues --   -7.96238  -7.96223  -7.95840  -7.95817  -5.98105
 Alpha  occ. eigenvalues --   -5.98103  -5.98089  -5.98085  -5.98066  -5.98063
 Alpha  occ. eigenvalues --   -5.98009  -5.97997  -5.97921  -5.97905  -5.97684
 Alpha  occ. eigenvalues --   -5.97664  -5.97581  -5.97577  -5.97563  -5.97562
 Alpha  occ. eigenvalues --   -5.97542  -5.97539  -5.97486  -5.97474  -5.97396
 Alpha  occ. eigenvalues --   -5.97382  -5.97267  -5.97244  -5.97210  -5.97195
 Alpha  occ. eigenvalues --   -5.97190  -5.97181  -5.97171  -5.97168  -5.97157
 Alpha  occ. eigenvalues --   -5.97141  -5.97113  -5.97101  -5.97014  -5.97012
 Alpha  occ. eigenvalues --   -5.96774  -5.96768  -5.96743  -5.96720  -5.96410
 Alpha  occ. eigenvalues --   -5.96387  -1.16564  -1.16449  -1.16334  -1.16211
 Alpha  occ. eigenvalues --   -1.16150  -1.15722  -1.15685  -1.14525  -1.14341
 Alpha  occ. eigenvalues --   -1.14162  -1.13998  -1.13920  -1.13480  -1.13446
 Alpha  occ. eigenvalues --   -1.01524  -1.01470  -1.01397  -1.01374  -1.01185
 Alpha  occ. eigenvalues --   -1.01140  -0.97729  -0.97607  -0.97445  -0.96931
 Alpha  occ. eigenvalues --   -0.96610  -0.96519  -0.96351  -0.96276  -0.96231
 Alpha  occ. eigenvalues --   -0.96029  -0.95816  -0.95554  -0.95205  -0.94653
 Alpha  occ. eigenvalues --   -0.94268  -0.91596  -0.90904  -0.89731  -0.88954
 Alpha  occ. eigenvalues --   -0.88356  -0.87455  -0.87174  -0.81441  -0.81152
 Alpha  occ. eigenvalues --   -0.80324  -0.79856  -0.79756  -0.79475  -0.77916
 Alpha  occ. eigenvalues --   -0.77451  -0.77112  -0.76077  -0.75913  -0.75692
 Alpha  occ. eigenvalues --   -0.74838  -0.73517  -0.73316  -0.72122  -0.71469
 Alpha  occ. eigenvalues --   -0.70987  -0.70707  -0.70277  -0.70166  -0.70134
 Alpha  occ. eigenvalues --   -0.69910  -0.69212  -0.68800  -0.67823  -0.67435
 Alpha  occ. eigenvalues --   -0.67212  -0.67132  -0.66865  -0.65899  -0.64976
 Alpha  occ. eigenvalues --   -0.64560  -0.63679  -0.63122  -0.62911  -0.61209
 Alpha  occ. eigenvalues --   -0.61187  -0.61079  -0.61005  -0.60867  -0.60806
 Alpha  occ. eigenvalues --   -0.60500  -0.60340  -0.60280  -0.59976  -0.59715
 Alpha  occ. eigenvalues --   -0.59627  -0.59610  -0.58278  -0.57675  -0.57395
 Alpha  occ. eigenvalues --   -0.57177  -0.56989  -0.56769  -0.56550  -0.56445
 Alpha  occ. eigenvalues --   -0.56310  -0.56046  -0.55955  -0.55790  -0.55551
 Alpha  occ. eigenvalues --   -0.55452  -0.55066  -0.54947  -0.54864  -0.54743
 Alpha  occ. eigenvalues --   -0.54147  -0.53268  -0.52869  -0.52644  -0.52238
 Alpha  occ. eigenvalues --   -0.52035  -0.51869  -0.51795  -0.51543  -0.51427
 Alpha  occ. eigenvalues --   -0.49860  -0.49805  -0.49662  -0.49600  -0.49336
 Alpha  occ. eigenvalues --   -0.49110  -0.48926  -0.48653  -0.46558  -0.46014
 Alpha  occ. eigenvalues --   -0.45376  -0.44674  -0.43980  -0.43564  -0.42749
 Alpha  occ. eigenvalues --   -0.42554  -0.42397  -0.42192  -0.42065  -0.41869
 Alpha  occ. eigenvalues --   -0.41780  -0.41603  -0.41549  -0.41477  -0.41423
 Alpha  occ. eigenvalues --   -0.41360  -0.41249  -0.41087  -0.41038  -0.40982
 Alpha  occ. eigenvalues --   -0.40927  -0.40841  -0.40673  -0.40594  -0.40560
 Alpha  occ. eigenvalues --   -0.40451  -0.40358  -0.40288  -0.40211  -0.39955
 Alpha  occ. eigenvalues --   -0.39736  -0.39456  -0.38854  -0.37156  -0.35962
 Alpha  occ. eigenvalues --   -0.34738  -0.33435  -0.32271  -0.31452  -0.30969
 Alpha virt. eigenvalues --   -0.03302  -0.02657  -0.01869  -0.00906   0.00213
 Alpha virt. eigenvalues --    0.01138   0.01713   0.04766   0.05680   0.06502
 Alpha virt. eigenvalues --    0.07426   0.08283   0.08830   0.08947   0.09275

  Beta  occ. eigenvalues --  -88.35832 -88.35822 -88.35812 -88.35808 -88.35793
  Beta  occ. eigenvalues --  -88.35790 -88.35736 -88.35724 -88.35640 -88.35632
  Beta  occ. eigenvalues --  -88.35401 -88.35390 -88.34994 -88.34971 -14.25011
  Beta  occ. eigenvalues --  -14.25000 -14.24994 -14.24970 -14.24967 -14.24956
  Beta  occ. eigenvalues --  -14.24893 -14.24873 -14.24851 -14.24819 -14.24560
  Beta  occ. eigenvalues --  -14.24521 -14.24189 -14.24160 -10.22322 -10.22306
  Beta  occ. eigenvalues --  -10.22301 -10.22296 -10.22275 -10.22268 -10.22224
  Beta  occ. eigenvalues --  -10.22207 -10.22126 -10.22112 -10.21910 -10.21887
  Beta  occ. eigenvalues --  -10.21476 -10.21449 -10.19747 -10.19727 -10.19666
  Beta  occ. eigenvalues --  -10.19643 -10.19622 -10.19619 -10.19572 -10.19561
  Beta  occ. eigenvalues --  -10.19548 -10.19452 -10.19353 -10.19252 -10.18113
  Beta  occ. eigenvalues --  -10.18107 -10.18093 -10.18077 -10.18046 -10.18041
  Beta  occ. eigenvalues --  -10.18018 -10.18004 -10.17892 -10.17859 -10.17782
  Beta  occ. eigenvalues --  -10.17733 -10.17418 -10.17394 -10.17146 -10.17119
  Beta  occ. eigenvalues --   -7.96665  -7.96658  -7.96645  -7.96644  -7.96625
  Beta  occ. eigenvalues --   -7.96622  -7.96568  -7.96556  -7.96477  -7.96465
  Beta  occ. eigenvalues --   -7.96238  -7.96223  -7.95840  -7.95817  -5.98105
  Beta  occ. eigenvalues --   -5.98103  -5.98089  -5.98085  -5.98066  -5.98063
  Beta  occ. eigenvalues --   -5.98009  -5.97997  -5.97921  -5.97905  -5.97684
  Beta  occ. eigenvalues --   -5.97664  -5.97581  -5.97577  -5.97563  -5.97562
  Beta  occ. eigenvalues --   -5.97542  -5.97539  -5.97486  -5.97474  -5.97396
  Beta  occ. eigenvalues --   -5.97382  -5.97267  -5.97244  -5.97210  -5.97195
  Beta  occ. eigenvalues --   -5.97190  -5.97181  -5.97171  -5.97168  -5.97157
  Beta  occ. eigenvalues --   -5.97141  -5.97113  -5.97101  -5.97014  -5.97012
  Beta  occ. eigenvalues --   -5.96774  -5.96768  -5.96743  -5.96720  -5.96410
  Beta  occ. eigenvalues --   -5.96387  -1.16564  -1.16449  -1.16334  -1.16211
  Beta  occ. eigenvalues --   -1.16150  -1.15722  -1.15685  -1.14525  -1.14341
  Beta  occ. eigenvalues --   -1.14162  -1.13998  -1.13920  -1.13480  -1.13446
  Beta  occ. eigenvalues --   -1.01524  -1.01470  -1.01397  -1.01374  -1.01185
  Beta  occ. eigenvalues --   -1.01140  -0.97729  -0.97607  -0.97445  -0.96931
  Beta  occ. eigenvalues --   -0.96610  -0.96519  -0.96351  -0.96276  -0.96231
  Beta  occ. eigenvalues --   -0.96029  -0.95816  -0.95554  -0.95205  -0.94653
  Beta  occ. eigenvalues --   -0.94268  -0.91596  -0.90904  -0.89731  -0.88954
  Beta  occ. eigenvalues --   -0.88356  -0.87455  -0.87174  -0.81441  -0.81152
  Beta  occ. eigenvalues --   -0.80324  -0.79856  -0.79756  -0.79475  -0.77916
  Beta  occ. eigenvalues --   -0.77451  -0.77112  -0.76077  -0.75913  -0.75692
  Beta  occ. eigenvalues --   -0.74838  -0.73517  -0.73316  -0.72122  -0.71469
  Beta  occ. eigenvalues --   -0.70987  -0.70707  -0.70277  -0.70166  -0.70134
  Beta  occ. eigenvalues --   -0.69910  -0.69212  -0.68800  -0.67823  -0.67435
  Beta  occ. eigenvalues --   -0.67212  -0.67132  -0.66865  -0.65899  -0.64976
  Beta  occ. eigenvalues --   -0.64560  -0.63679  -0.63122  -0.62911  -0.61209
  Beta  occ. eigenvalues --   -0.61187  -0.61079  -0.61005  -0.60867  -0.60806
  Beta  occ. eigenvalues --   -0.60500  -0.60340  -0.60280  -0.59976  -0.59715
  Beta  occ. eigenvalues --   -0.59627  -0.59610  -0.58278  -0.57675  -0.57395
  Beta  occ. eigenvalues --   -0.57177  -0.56989  -0.56769  -0.56550  -0.56445
  Beta  occ. eigenvalues --   -0.56310  -0.56046  -0.55955  -0.55790  -0.55551
  Beta  occ. eigenvalues --   -0.55452  -0.55066  -0.54947  -0.54864  -0.54743
  Beta  occ. eigenvalues --   -0.54147  -0.53268  -0.52869  -0.52644  -0.52238
  Beta  occ. eigenvalues --   -0.52035  -0.51869  -0.51795  -0.51543  -0.51427
  Beta  occ. eigenvalues --   -0.49860  -0.49805  -0.49662  -0.49600  -0.49336
  Beta  occ. eigenvalues --   -0.49110  -0.48926  -0.48653  -0.46558  -0.46014
  Beta  occ. eigenvalues --   -0.45376  -0.44674  -0.43980  -0.43564  -0.42749
  Beta  occ. eigenvalues --   -0.42554  -0.42397  -0.42192  -0.42065  -0.41869
  Beta  occ. eigenvalues --   -0.41780  -0.41603  -0.41549  -0.41477  -0.41423
  Beta  occ. eigenvalues --   -0.41360  -0.41249  -0.41087  -0.41038  -0.40982
  Beta  occ. eigenvalues --   -0.40927  -0.40841  -0.40673  -0.40594  -0.40560
  Beta  occ. eigenvalues --   -0.40451  -0.40358  -0.40288  -0.40211  -0.39955
  Beta  occ. eigenvalues --   -0.39736  -0.39456  -0.38854  -0.37156  -0.35962
  Beta  occ. eigenvalues --   -0.34738  -0.33435  -0.32271  -0.31452  -0.30969
  Beta virt. eigenvalues --   -0.03302  -0.02657  -0.01869  -0.00906   0.00213
  Beta virt. eigenvalues --    0.01138   0.01713   0.04766   0.05680   0.06502
  Beta virt. eigenvalues --    0.07426   0.08283   0.08830   0.08947   0.09275

 Mulliken charges and spin densities:
               1          2
     1  C   -0.191668  -0.000000
     2  C    0.106350   0.000000
     3  N   -0.196558   0.000000
     4  C   -0.013750  -0.000000
     5  S    0.216226  -0.000000
     6  C    0.016786   0.000000
     7  N   -0.189027  -0.000000
     8  C    0.118986   0.000000
     9  C   -0.202962   0.000000
    10  S    0.223797   0.000000
    11  C   -0.200147  -0.000000
    12  C    0.119807  -0.000000
    13  N   -0.190125   0.000000
    14  C    0.008214   0.000000
    15  S    0.226284   0.000000
    16  C    0.006135  -0.000000
    17  N   -0.191650   0.000000
    18  C    0.129731   0.000000
    19  C   -0.213760  -0.000000
    20  S    0.236429   0.000000
    21  C   -0.213295   0.000000
    22  C    0.129573  -0.000000
    23  N   -0.191091  -0.000000
    24  C    0.006571   0.000000
    25  S    0.236612  -0.000000
    26  C    0.006849  -0.000000
    27  N   -0.190988  -0.000000
    28  C    0.129704   0.000000
    29  C   -0.213530  -0.000000
    30  S    0.236495   0.000000
    31  C   -0.213433   0.000000
    32  C    0.129787   0.000000
    33  N   -0.191598  -0.000000
    34  C    0.005773   0.000000
    35  S    0.237144   0.000000
    36  C    0.009017  -0.000000
    37  N   -0.189919   0.000000
    38  C    0.120548   0.000000
    39  C   -0.202237   0.000000
    40  S    0.227547   0.000000
    41  C   -0.202254  -0.000000
    42  C    0.120557   0.000000
    43  N   -0.189894  -0.000000
    44  C    0.009132   0.000000
    45  S    0.227415  -0.000000
    46  C    0.005604   0.000000
    47  N   -0.191664  -0.000000
    48  C    0.129613   0.000000
    49  C   -0.213142   0.000000
    50  S    0.237103   0.000000
    51  C   -0.213828  -0.000000
    52  C    0.129640   0.000000
    53  N   -0.190990  -0.000000
    54  C    0.007131  -0.000000
    55  S    0.235802   0.000000
    56  C    0.005827   0.000000
    57  N   -0.191348  -0.000000
    58  C    0.128764  -0.000000
    59  C   -0.211397  -0.000000
    60  S    0.236074   0.000000
    61  C   -0.214133   0.000000
    62  C    0.128198   0.000000
    63  N   -0.190104   0.000000
    64  C    0.014493   0.000000
    65  S    0.232654   0.000000
    66  C   -0.012843  -0.000000
    67  N   -0.196021  -0.000000
    68  C    0.106239   0.000000
    69  C   -0.191639  -0.000000
    70  S    0.215579   0.000000
    71  H    0.054450   0.000000
    72  H    0.027803   0.000000
    73  H    0.033995  -0.000000
    74  H    0.035160   0.000000
    75  H    0.030761  -0.000000
    76  H    0.031125  -0.000000
    77  H    0.031103   0.000000
    78  H    0.031098   0.000000
    79  H    0.035507  -0.000000
    80  H    0.035398   0.000000
    81  H    0.031009  -0.000000
    82  H    0.030869   0.000000
    83  H    0.030605   0.000000
    84  H    0.029658   0.000000
    85  H    0.027892   0.000000
    86  H    0.054368   0.000000
 Sum of Mulliken charges =  -0.00000  -0.00000

 Dipole moment (field-independent basis, Debye):
    X=             -0.0035    Y=              0.0543    Z=              0.0018  Tot=              0.0544
 Quadrupole moment (field-independent basis, Debye-Ang):
   XX=           -308.7358   YY=           -483.2195   ZZ=           -491.1813
   XY=              9.4013   XZ=              7.2546   YZ=             -0.9270

 Normal termination of Gaussian 16 at Sat Jul 25 20:45:09 2020.
