 Gaussian 16, Revision A.03,
 Gaussian 16:  EM64L-G16RevA.03 25-Dec-2016

 ---------------------------------------------------------------
 #P uLC-wPBE/cc-pVDZ iop(3/107=0072000000, 3/108=0072000000) opt
 ---------------------------------------------------------------

 ----------------
 H23 C30 S3 N3 O3
 ----------------
 Symbolic Z-matrix:
 Charge =  0 Multiplicity = 1

 SCF Done:  E(ULC-wPBE) =  -2739.45577774     A.U. after   17 cycles
 SCF Done:  E(ULC-wPBE) =  -2739.51639875     A.U. after   16 cycles
 SCF Done:  E(ULC-wPBE) =  -2739.56558664     A.U. after   18 cycles
 SCF Done:  E(ULC-wPBE) =  -2739.57322326     A.U. after   15 cycles
 SCF Done:  E(ULC-wPBE) =  -2739.57986357     A.U. after   17 cycles
 SCF Done:  E(ULC-wPBE) =  -2739.58173528     A.U. after   15 cycles
 SCF Done:  E(ULC-wPBE) =  -2739.58243554     A.U. after   14 cycles
 SCF Done:  E(ULC-wPBE) =  -2739.58264447     A.U. after   14 cycles
 SCF Done:  E(ULC-wPBE) =  -2739.58273890     A.U. after   13 cycles
 SCF Done:  E(ULC-wPBE) =  -2739.58276181     A.U. after   12 cycles
 SCF Done:  E(ULC-wPBE) =  -2739.58276960     A.U. after   11 cycles
 SCF Done:  E(ULC-wPBE) =  -2739.58277250     A.U. after   11 cycles
 SCF Done:  E(ULC-wPBE) =  -2739.58277415     A.U. after   11 cycles
 SCF Done:  E(ULC-wPBE) =  -2739.58277558     A.U. after   11 cycles
 SCF Done:  E(ULC-wPBE) =  -2739.58277592     A.U. after   10 cycles
 SCF Done:  E(ULC-wPBE) =  -2739.58277610     A.U. after    8 cycles
 SCF Done:  E(ULC-wPBE) =  -2739.58277620     A.U. after    7 cycles
 SCF Done:  E(ULC-wPBE) =  -2739.58277618     A.U. after    6 cycles
 SCF Done:  E(ULC-wPBE) =  -2739.58277619     A.U. after    6 cycles
 Optimization completed.
    -- Stationary point found.

                         Standard orientation:
 ---------------------------------------------------------------------
 Center     Atomic      Atomic             Coordinates (Angstroms)
 Number     Number       Type             X           Y           Z
 ---------------------------------------------------------------------
      1          6           0        9.574802   -3.601690   -0.234165
      2          6           0        8.189741   -3.723235   -0.397774
      3          7           0        7.346127   -2.687428   -0.280967
      4          6           0        7.832265   -1.457937    0.006994
      5          6           0        9.234512   -1.242547    0.190244
      6          8           0        9.640209    0.030247    0.478514
      7          6           0       11.037798    0.255209    0.665054
      8          6           0       10.103963   -2.337845    0.065227
      9          6           0        6.825525   -0.402330    0.108753
     10          6           0        6.908883    0.960637    0.384529
     11          6           0        5.648336    1.609920    0.378798
     12          6           0        4.581833    0.757073    0.102362
     13         16           0        5.155272   -0.881194   -0.166219
     14          6           0        3.158550    1.084561    0.025570
     15          6           0        2.149992    0.100729    0.144357
     16          7           0        0.842116    0.360833    0.081714
     17          6           0        0.411890    1.632388   -0.095767
     18          6           0        1.351559    2.704602   -0.218655
     19          8           0        0.842724    3.960408   -0.399061
     20          6           0        1.766817    5.040833   -0.526476
     21          6           0        2.719382    2.415969   -0.163173
     22          6           0       -1.035697    1.801337   -0.148444
     23          6           0       -1.852769    2.917461   -0.321992
     24          6           0       -3.235902    2.608098   -0.306769
     25          6           0       -3.503309    1.252944   -0.121226
     26         16           0       -2.007405    0.346433    0.044285
     27          6           0       -4.803102    0.586465   -0.055987
     28          6           0       -5.990116    1.310720    0.203548
     29          7           0       -7.203386    0.756509    0.260963
     30          6           0       -7.351114   -0.576987    0.078595
     31          6           0       -6.210894   -1.403344   -0.170773
     32          8           0       -6.432641   -2.741486   -0.337628
     33          6           0       -5.300011   -3.576805   -0.580675
     34          6           0       -4.946448   -0.807697   -0.241811
     35          6           0       -8.722604   -1.073504    0.157936
     36          6           0       -9.273769   -2.345706    0.027574
     37          6           0      -10.689739   -2.361287    0.182781
     38          6           0      -11.210946   -1.105600    0.430304
     39         16           0       -9.981590    0.117956    0.478043
     40          1           0       10.234467   -4.474588   -0.336781
     41          1           0        7.730102   -4.696657   -0.633414
     42          1           0       11.436741   -0.334478    1.519023
     43          1           0       11.617742    0.010109   -0.251336
     44          1           0       11.141864    1.332495    0.885402
     45          1           0       11.185869   -2.212359    0.199293
     46          1           0        7.859470    1.460465    0.590861
     47          1           0        5.520310    2.676907    0.603793
     48          1           0        2.424292   -0.954180    0.312191
     49          1           0        1.151215    5.949309   -0.651210
     50          1           0        2.399450    5.147134    0.381703
     51          1           0        2.422222    4.916251   -1.415974
     52          1           0        3.459688    3.215556   -0.288174
     53          1           0       -1.447555    3.923379   -0.463607
     54          1           0       -4.022906    3.358360   -0.455549
     55          1           0       -5.949658    2.395579    0.390743
     56          1           0       -5.698224   -4.603069   -0.670576
     57          1           0       -4.781852   -3.299554   -1.524460
     58          1           0       -4.573506   -3.535622    0.259755
     59          1           0       -4.058173   -1.415174   -0.459403
     60          1           0       -8.663074   -3.230426   -0.173956
     61          1           0      -11.302619   -3.269434    0.114293
     62          1           0      -12.259212   -0.828444    0.589460
 ---------------------------------------------------------------------

 The electronic state is 1-A.
 Alpha  occ. eigenvalues --  -88.13596 -88.13198 -88.12549 -18.86322 -18.85897
 Alpha  occ. eigenvalues --  -18.85220 -14.04161 -14.03881 -14.03291 -10.01629
 Alpha  occ. eigenvalues --  -10.01235 -10.01221 -10.00808 -10.00573 -10.00075
 Alpha  occ. eigenvalues --   -9.99084  -9.98577  -9.97969  -9.97466  -9.97234
 Alpha  occ. eigenvalues --   -9.97216  -9.97014  -9.96913  -9.96864  -9.96618
 Alpha  occ. eigenvalues --   -9.96449  -9.96419  -9.96053  -9.96002  -9.95879
 Alpha  occ. eigenvalues --   -9.95676  -9.95442  -9.95229  -9.94659  -9.94560
 Alpha  occ. eigenvalues --   -9.94121  -9.94088  -9.93427  -9.93298  -7.73776
 Alpha  occ. eigenvalues --   -7.73387  -7.72733  -5.75876  -5.75486  -5.75433
 Alpha  occ. eigenvalues --   -5.75047  -5.75047  -5.74822  -5.74653  -5.74377
 Alpha  occ. eigenvalues --   -5.74028  -1.03979  -1.03562  -1.02879  -0.90564
 Alpha  occ. eigenvalues --   -0.90339  -0.89732  -0.84464  -0.83899  -0.82730
 Alpha  occ. eigenvalues --   -0.78363  -0.77506  -0.77401  -0.75959  -0.75372
 Alpha  occ. eigenvalues --   -0.74810  -0.71106  -0.70962  -0.70393  -0.69932
 Alpha  occ. eigenvalues --   -0.69411  -0.68752  -0.68545  -0.68003  -0.66153
 Alpha  occ. eigenvalues --   -0.63307  -0.61821  -0.60306  -0.59893  -0.59779
 Alpha  occ. eigenvalues --   -0.59274  -0.55210  -0.54879  -0.54414  -0.54079
 Alpha  occ. eigenvalues --   -0.53638  -0.52916  -0.52504  -0.51361  -0.50589
 Alpha  occ. eigenvalues --   -0.50066  -0.49870  -0.49095  -0.48848  -0.48613
 Alpha  occ. eigenvalues --   -0.47906  -0.47345  -0.46945  -0.46550  -0.46230
 Alpha  occ. eigenvalues --   -0.45317  -0.43913  -0.43756  -0.43475  -0.42759
 Alpha  occ. eigenvalues --   -0.42479  -0.41621  -0.41253  -0.40727  -0.40388
 Alpha  occ. eigenvalues --   -0.40351  -0.40043  -0.39817  -0.39126  -0.38728
 Alpha  occ. eigenvalues --   -0.38397  -0.38179  -0.37967  -0.37801  -0.37385
 Alpha  occ. eigenvalues --   -0.37248  -0.36854  -0.36161  -0.36045  -0.34827
 Alpha  occ. eigenvalues --   -0.34631  -0.34456  -0.34183  -0.33814  -0.33721
 Alpha  occ. eigenvalues --   -0.33598  -0.33159  -0.32651  -0.32190  -0.30662
 Alpha  occ. eigenvalues --   -0.29388  -0.26553  -0.26395  -0.26015  -0.26005
 Alpha  occ. eigenvalues --   -0.25841  -0.25528  -0.25470  -0.24978  -0.24820
 Alpha  occ. eigenvalues --   -0.23734  -0.21939  -0.19964
 Alpha virt. eigenvalues --   -0.06233  -0.04160  -0.02138  -0.00852  -0.00263
 Alpha virt. eigenvalues --   -0.00047   0.01235   0.03270   0.04486   0.05062
 Alpha virt. eigenvalues --    0.05386   0.06111   0.06306   0.06414   0.06891

  Beta  occ. eigenvalues --  -88.13596 -88.13198 -88.12549 -18.86322 -18.85897
  Beta  occ. eigenvalues --  -18.85220 -14.04161 -14.03881 -14.03291 -10.01629
  Beta  occ. eigenvalues --  -10.01235 -10.01221 -10.00808 -10.00573 -10.00075
  Beta  occ. eigenvalues --   -9.99084  -9.98577  -9.97969  -9.97466  -9.97234
  Beta  occ. eigenvalues --   -9.97216  -9.97014  -9.96913  -9.96864  -9.96618
  Beta  occ. eigenvalues --   -9.96449  -9.96419  -9.96053  -9.96002  -9.95879
  Beta  occ. eigenvalues --   -9.95676  -9.95442  -9.95229  -9.94659  -9.94560
  Beta  occ. eigenvalues --   -9.94121  -9.94088  -9.93427  -9.93298  -7.73776
  Beta  occ. eigenvalues --   -7.73387  -7.72733  -5.75876  -5.75486  -5.75433
  Beta  occ. eigenvalues --   -5.75047  -5.75047  -5.74822  -5.74653  -5.74377
  Beta  occ. eigenvalues --   -5.74028  -1.03979  -1.03562  -1.02879  -0.90564
  Beta  occ. eigenvalues --   -0.90339  -0.89732  -0.84464  -0.83899  -0.82730
  Beta  occ. eigenvalues --   -0.78363  -0.77506  -0.77401  -0.75959  -0.75372
  Beta  occ. eigenvalues --   -0.74810  -0.71106  -0.70962  -0.70393  -0.69932
  Beta  occ. eigenvalues --   -0.69411  -0.68752  -0.68545  -0.68003  -0.66153
  Beta  occ. eigenvalues --   -0.63307  -0.61821  -0.60306  -0.59893  -0.59779
  Beta  occ. eigenvalues --   -0.59274  -0.55210  -0.54879  -0.54414  -0.54079
  Beta  occ. eigenvalues --   -0.53638  -0.52916  -0.52504  -0.51361  -0.50589
  Beta  occ. eigenvalues --   -0.50066  -0.49870  -0.49095  -0.48848  -0.48613
  Beta  occ. eigenvalues --   -0.47906  -0.47345  -0.46945  -0.46550  -0.46230
  Beta  occ. eigenvalues --   -0.45317  -0.43913  -0.43756  -0.43475  -0.42759
  Beta  occ. eigenvalues --   -0.42479  -0.41621  -0.41253  -0.40727  -0.40388
  Beta  occ. eigenvalues --   -0.40351  -0.40043  -0.39817  -0.39126  -0.38728
  Beta  occ. eigenvalues --   -0.38397  -0.38179  -0.37967  -0.37801  -0.37385
  Beta  occ. eigenvalues --   -0.37248  -0.36854  -0.36161  -0.36045  -0.34827
  Beta  occ. eigenvalues --   -0.34631  -0.34456  -0.34183  -0.33814  -0.33721
  Beta  occ. eigenvalues --   -0.33598  -0.33159  -0.32651  -0.32190  -0.30662
  Beta  occ. eigenvalues --   -0.29388  -0.26553  -0.26395  -0.26015  -0.26005
  Beta  occ. eigenvalues --   -0.25841  -0.25528  -0.25470  -0.24978  -0.24820
  Beta  occ. eigenvalues --   -0.23734  -0.21939  -0.19964
  Beta virt. eigenvalues --   -0.06233  -0.04160  -0.02138  -0.00852  -0.00263
  Beta virt. eigenvalues --   -0.00047   0.01235   0.03270   0.04486   0.05062
  Beta virt. eigenvalues --    0.05386   0.06111   0.06306   0.06414   0.06891

 Mulliken charges and spin densities:
               1          2
     1  C   -0.022002  -0.000000
     2  C    0.088312   0.000000
     3  N   -0.213740  -0.000000
     4  C    0.122121   0.000000
     5  C    0.103629   0.000000
     6  O   -0.239150  -0.000000
     7  C    0.062572   0.000000
     8  C    0.029157  -0.000000
     9  C   -0.115326  -0.000000
    10  C    0.023054  -0.000000
    11  C    0.036064  -0.000000
    12  C   -0.153984  -0.000000
    13  S    0.173551   0.000000
    14  C    0.025297   0.000000
    15  C    0.075434  -0.000000
    16  N   -0.212760  -0.000000
    17  C    0.131200  -0.000000
    18  C    0.111649   0.000000
    19  O   -0.241603   0.000000
    20  C    0.066568  -0.000000
    21  C    0.020324  -0.000000
    22  C   -0.116750   0.000000
    23  C    0.018723  -0.000000
    24  C    0.040113   0.000000
    25  C   -0.150359  -0.000000
    26  S    0.157865  -0.000000
    27  C    0.028459   0.000000
    28  C    0.073264   0.000000
    29  N   -0.213737  -0.000000
    30  C    0.141041   0.000000
    31  C    0.112748   0.000000
    32  O   -0.241885  -0.000000
    33  C    0.064781   0.000000
    34  C    0.014267   0.000000
    35  C   -0.127437  -0.000000
    36  C   -0.010554  -0.000000
    37  C    0.079884   0.000000
    38  C   -0.129185  -0.000000
    39  S    0.170591   0.000000
    40  H   -0.017086  -0.000000
    41  H   -0.002007   0.000000
    42  H    0.049693  -0.000000
    43  H    0.049427  -0.000000
    44  H    0.052690   0.000000
    45  H   -0.013006  -0.000000
    46  H   -0.030098   0.000000
    47  H   -0.031081   0.000000
    48  H    0.000766  -0.000000
    49  H    0.051915   0.000000
    50  H    0.047480  -0.000000
    51  H    0.050806  -0.000000
    52  H   -0.027115  -0.000000
    53  H   -0.030299  -0.000000
    54  H   -0.023942  -0.000000
    55  H   -0.011205   0.000000
    56  H    0.049793  -0.000000
    57  H    0.051695  -0.000000
    58  H    0.051704  -0.000000
    59  H   -0.013668   0.000000
    60  H   -0.027126  -0.000000
    61  H   -0.022908  -0.000000
    62  H    0.011374  -0.000000
 Sum of Mulliken charges =  -0.00000  -0.00000

 Dipole moment (field-independent basis, Debye):
    X=              9.2071    Y=              1.2639    Z=             -0.4991  Tot=              9.3068
 Quadrupole moment (field-independent basis, Debye-Ang):
   XX=           -180.8353   YY=           -203.7357   ZZ=           -252.5944
   XY=             20.2751   XZ=              8.4945   YZ=              1.0337

 Normal termination of Gaussian 16 at Fri Jul 24 16:08:49 2020.
