 Gaussian 16, Revision A.03,
 Gaussian 16:  EM64L-G16RevA.03 25-Dec-2016

 ---------------------------------------------------------------
 #P uLC-wPBE/cc-pVDZ iop(3/107=0051800000, 3/108=0051800000) opt
 ---------------------------------------------------------------

 ----------
 H23 C33 N3
 ----------
 Symbolic Z-matrix:
 Charge =  0 Multiplicity = 1

 SCF Done:  E(ULC-wPBE) =  -1434.04463913     A.U. after   15 cycles
 SCF Done:  E(ULC-wPBE) =  -1434.11338296     A.U. after   13 cycles
 SCF Done:  E(ULC-wPBE) =  -1434.16273877     A.U. after   14 cycles
 SCF Done:  E(ULC-wPBE) =  -1434.16583159     A.U. after   13 cycles
 SCF Done:  E(ULC-wPBE) =  -1434.16711002     A.U. after   13 cycles
 SCF Done:  E(ULC-wPBE) =  -1434.16757500     A.U. after   12 cycles
 SCF Done:  E(ULC-wPBE) =  -1434.16767086     A.U. after   11 cycles
 SCF Done:  E(ULC-wPBE) =  -1434.16774726     A.U. after   12 cycles
 SCF Done:  E(ULC-wPBE) =  -1434.16778290     A.U. after   11 cycles
 SCF Done:  E(ULC-wPBE) =  -1434.16781407     A.U. after   12 cycles
 SCF Done:  E(ULC-wPBE) =  -1434.16785292     A.U. after   11 cycles
 SCF Done:  E(ULC-wPBE) =  -1434.16785425     A.U. after   10 cycles
 SCF Done:  E(ULC-wPBE) =  -1434.16785506     A.U. after   11 cycles
 SCF Done:  E(ULC-wPBE) =  -1434.16785621     A.U. after   10 cycles
 SCF Done:  E(ULC-wPBE) =  -1434.16785750     A.U. after   11 cycles
 SCF Done:  E(ULC-wPBE) =  -1434.16785847     A.U. after   10 cycles
 SCF Done:  E(ULC-wPBE) =  -1434.16785929     A.U. after   10 cycles
 SCF Done:  E(ULC-wPBE) =  -1434.16785938     A.U. after    8 cycles
 SCF Done:  E(ULC-wPBE) =  -1434.16785934     A.U. after    7 cycles
 SCF Done:  E(ULC-wPBE) =  -1434.16785934     A.U. after    6 cycles
 Optimization completed.
    -- Stationary point found.

                         Standard orientation:
 ---------------------------------------------------------------------
 Center     Atomic      Atomic             Coordinates (Angstroms)
 Number     Number       Type             X           Y           Z
 ---------------------------------------------------------------------
      1          6           0      -12.137808    0.301190   -0.139675
      2          6           0      -11.450563    1.506698    0.057533
      3          6           0      -10.052629    1.491031    0.103614
      4          6           0       -9.366789    0.263615   -0.045092
      5          7           0      -10.034373   -0.901350   -0.241891
      6          6           0      -11.374834   -0.867813   -0.285899
      7          6           0       -7.881139    0.166105   -0.004305
      8          6           0       -7.256762   -1.070702   -0.283400
      9          6           0       -5.867004   -1.199572   -0.258344
     10          6           0       -5.033405   -0.098812    0.050007
     11          6           0       -5.659642    1.136500    0.335195
     12          6           0       -7.051403    1.265626    0.308361
     13          6           0       -3.560790   -0.233740    0.074306
     14          6           0       -2.913864   -1.417048    0.490582
     15          6           0       -1.520102   -1.486273    0.493688
     16          6           0       -0.762714   -0.364434    0.086072
     17          7           0       -1.373271    0.773171   -0.332913
     18          6           0       -2.709710    0.820546   -0.336224
     19          6           0        0.723844   -0.353553    0.080349
     20          6           0        1.411465    0.759487   -0.455019
     21          6           0        2.806602    0.803055   -0.480699
     22          6           0        3.583077   -0.263429    0.031337
     23          6           0        2.893744   -1.373990    0.570837
     24          6           0        1.497111   -1.418493    0.595203
     25          6           0        5.061188   -0.217962    0.007943
     26          6           0        5.853963   -1.371083   -0.175433
     27          6           0        7.245501   -1.266556   -0.189736
     28          6           0        7.854276   -0.001049   -0.029049
     29          7           0        7.103281    1.112162    0.166626
     30          6           0        5.771112    0.993905    0.184841
     31          6           0        9.330137    0.193543   -0.052925
     32          6           0        9.867530    1.459238    0.275012
     33          6           0       11.250051    1.675871    0.266845
     34          6           0       12.128952    0.634226   -0.072531
     35          6           0       11.608786   -0.626055   -0.406473
     36          6           0       10.224910   -0.844571   -0.397327
     37          1           0      -13.235285    0.264190   -0.183123
     38          1           0      -11.997307    2.454207    0.171492
     39          1           0       -9.501757    2.430230    0.246438
     40          1           0      -11.872420   -1.839274   -0.448331
     41          1           0       -7.902079   -1.924710   -0.527907
     42          1           0       -5.412913   -2.169097   -0.511418
     43          1           0       -5.045616    2.004602    0.615108
     44          1           0       -7.490006    2.242161    0.556787
     45          1           0       -3.506382   -2.277681    0.834302
     46          1           0       -1.026435   -2.411890    0.818493
     47          1           0       -3.151212    1.758414   -0.714922
     48          1           0        0.810877    1.585071   -0.859007
     49          1           0        3.308957    1.669819   -0.934487
     50          1           0        3.464365   -2.205871    1.009024
     51          1           0        1.009100   -2.295560    1.042943
     52          1           0        5.376167   -2.349947   -0.329477
     53          1           0        7.853606   -2.170287   -0.329135
     54          1           0        5.213432    1.926632    0.376945
     55          1           0        9.163641    2.261156    0.534054
     56          1           0       11.647045    2.667853    0.528351
     57          1           0       13.215531    0.803840   -0.079648
     58          1           0       12.286663   -1.447442   -0.680938
     59          1           0        9.844005   -1.837297   -0.675862
 ---------------------------------------------------------------------

 The electronic state is 1-A.
 Alpha  occ. eigenvalues --  -14.02955 -14.02883 -14.02548  -9.97735  -9.97500
 Alpha  occ. eigenvalues --   -9.97158  -9.96827  -9.96673  -9.96362  -9.95555
 Alpha  occ. eigenvalues --   -9.95272  -9.95247  -9.95139  -9.95001  -9.94960
 Alpha  occ. eigenvalues --   -9.94930  -9.94701  -9.94625  -9.94576  -9.94560
 Alpha  occ. eigenvalues --   -9.94459  -9.94233  -9.94183  -9.94084  -9.94026
 Alpha  occ. eigenvalues --   -9.93950  -9.93932  -9.93907  -9.93659  -9.93433
 Alpha  occ. eigenvalues --   -9.93371  -9.93317  -9.93289  -9.93173  -9.93079
 Alpha  occ. eigenvalues --   -9.92613  -0.89361  -0.89332  -0.89004  -0.81988
 Alpha  occ. eigenvalues --   -0.81592  -0.80407  -0.77559  -0.76911  -0.76270
 Alpha  occ. eigenvalues --   -0.74844  -0.74304  -0.73269  -0.71111  -0.70905
 Alpha  occ. eigenvalues --   -0.70762  -0.70032  -0.69118  -0.67302  -0.62970
 Alpha  occ. eigenvalues --   -0.61513  -0.61043  -0.60735  -0.60052  -0.59123
 Alpha  occ. eigenvalues --   -0.57475  -0.56777  -0.56225  -0.55824  -0.55350
 Alpha  occ. eigenvalues --   -0.54756  -0.51604  -0.51013  -0.50169  -0.48654
 Alpha  occ. eigenvalues --   -0.47943  -0.47296  -0.46970  -0.46447  -0.45971
 Alpha  occ. eigenvalues --   -0.45724  -0.43426  -0.43085  -0.42875  -0.42503
 Alpha  occ. eigenvalues --   -0.42189  -0.41994  -0.41631  -0.41338  -0.40961
 Alpha  occ. eigenvalues --   -0.40433  -0.40208  -0.39924  -0.39788  -0.39549
 Alpha  occ. eigenvalues --   -0.39457  -0.39175  -0.38542  -0.38076  -0.37309
 Alpha  occ. eigenvalues --   -0.36659  -0.36383  -0.36022  -0.35492  -0.35107
 Alpha  occ. eigenvalues --   -0.34084  -0.33939  -0.33027  -0.32992  -0.32698
 Alpha  occ. eigenvalues --   -0.32289  -0.31424  -0.30105  -0.29277  -0.28711
 Alpha  occ. eigenvalues --   -0.28429  -0.27837  -0.26248  -0.26064  -0.25428
 Alpha  occ. eigenvalues --   -0.25374  -0.24589  -0.24350  -0.23986  -0.23416
 Alpha  occ. eigenvalues --   -0.21823
 Alpha virt. eigenvalues --   -0.07096  -0.05328  -0.03761  -0.03397  -0.03316
 Alpha virt. eigenvalues --   -0.02869  -0.01261  -0.00992  -0.00416   0.00227
 Alpha virt. eigenvalues --    0.02296   0.04184   0.05881   0.06290   0.06496

  Beta  occ. eigenvalues --  -14.02955 -14.02883 -14.02548  -9.97735  -9.97500
  Beta  occ. eigenvalues --   -9.97158  -9.96827  -9.96673  -9.96362  -9.95555
  Beta  occ. eigenvalues --   -9.95272  -9.95247  -9.95139  -9.95001  -9.94960
  Beta  occ. eigenvalues --   -9.94930  -9.94701  -9.94625  -9.94576  -9.94560
  Beta  occ. eigenvalues --   -9.94459  -9.94233  -9.94183  -9.94084  -9.94026
  Beta  occ. eigenvalues --   -9.93950  -9.93932  -9.93907  -9.93659  -9.93433
  Beta  occ. eigenvalues --   -9.93371  -9.93317  -9.93289  -9.93173  -9.93079
  Beta  occ. eigenvalues --   -9.92613  -0.89361  -0.89332  -0.89004  -0.81988
  Beta  occ. eigenvalues --   -0.81592  -0.80407  -0.77559  -0.76911  -0.76270
  Beta  occ. eigenvalues --   -0.74844  -0.74304  -0.73269  -0.71111  -0.70905
  Beta  occ. eigenvalues --   -0.70762  -0.70032  -0.69118  -0.67302  -0.62970
  Beta  occ. eigenvalues --   -0.61513  -0.61043  -0.60735  -0.60052  -0.59123
  Beta  occ. eigenvalues --   -0.57475  -0.56777  -0.56225  -0.55824  -0.55350
  Beta  occ. eigenvalues --   -0.54756  -0.51604  -0.51013  -0.50169  -0.48654
  Beta  occ. eigenvalues --   -0.47943  -0.47296  -0.46970  -0.46447  -0.45971
  Beta  occ. eigenvalues --   -0.45724  -0.43426  -0.43085  -0.42875  -0.42503
  Beta  occ. eigenvalues --   -0.42189  -0.41994  -0.41631  -0.41338  -0.40961
  Beta  occ. eigenvalues --   -0.40433  -0.40208  -0.39924  -0.39788  -0.39549
  Beta  occ. eigenvalues --   -0.39457  -0.39175  -0.38542  -0.38076  -0.37309
  Beta  occ. eigenvalues --   -0.36659  -0.36383  -0.36022  -0.35492  -0.35107
  Beta  occ. eigenvalues --   -0.34084  -0.33939  -0.33027  -0.32992  -0.32698
  Beta  occ. eigenvalues --   -0.32289  -0.31424  -0.30105  -0.29277  -0.28711
  Beta  occ. eigenvalues --   -0.28429  -0.27837  -0.26248  -0.26064  -0.25428
  Beta  occ. eigenvalues --   -0.25374  -0.24589  -0.24350  -0.23986  -0.23416
  Beta  occ. eigenvalues --   -0.21823
  Beta virt. eigenvalues --   -0.07096  -0.05328  -0.03761  -0.03397  -0.03316
  Beta virt. eigenvalues --   -0.02869  -0.01261  -0.00992  -0.00416   0.00227
  Beta virt. eigenvalues --    0.02296   0.04184   0.05881   0.06290   0.06496

 Mulliken charges and spin densities:
               1          2
     1  C   -0.019747  -0.000000
     2  C    0.078550   0.000000
     3  C    0.004064  -0.000000
     4  C    0.086911  -0.000000
     5  N   -0.195863  -0.000000
     6  C    0.091222   0.000000
     7  C    0.026566   0.000000
     8  C    0.058215  -0.000000
     9  C    0.014862  -0.000000
    10  C    0.043131  -0.000000
    11  C    0.008371   0.000000
    12  C   -0.020507  -0.000000
    13  C   -0.022467   0.000000
    14  C    0.065892  -0.000000
    15  C    0.016870   0.000000
    16  C    0.090157   0.000000
    17  N   -0.194896  -0.000000
    18  C    0.084869   0.000000
    19  C    0.026635  -0.000000
    20  C    0.057662   0.000000
    21  C    0.014575   0.000000
    22  C    0.043350  -0.000000
    23  C    0.008342   0.000000
    24  C   -0.021695  -0.000000
    25  C   -0.023921  -0.000000
    26  C    0.065604   0.000000
    27  C    0.016826  -0.000000
    28  C    0.091813   0.000000
    29  N   -0.194260   0.000000
    30  C    0.084485   0.000000
    31  C    0.011848  -0.000000
    32  C    0.048675   0.000000
    33  C    0.041048   0.000000
    34  C    0.032793  -0.000000
    35  C    0.034863  -0.000000
    36  C   -0.028644  -0.000000
    37  H   -0.014925  -0.000000
    38  H   -0.011657   0.000000
    39  H   -0.018359   0.000000
    40  H   -0.002132  -0.000000
    41  H   -0.031303  -0.000000
    42  H   -0.028586  -0.000000
    43  H   -0.028404   0.000000
    44  H   -0.032265  -0.000000
    45  H   -0.022392  -0.000000
    46  H   -0.021121  -0.000000
    47  H   -0.007214  -0.000000
    48  H   -0.030809   0.000000
    49  H   -0.025261   0.000000
    50  H   -0.032077  -0.000000
    51  H   -0.034024   0.000000
    52  H   -0.024833   0.000000
    53  H   -0.021461  -0.000000
    54  H   -0.006282   0.000000
    55  H   -0.032167  -0.000000
    56  H   -0.019863  -0.000000
    57  H   -0.023168  -0.000000
    58  H   -0.023238  -0.000000
    59  H   -0.034661  -0.000000
 Sum of Mulliken charges =  -0.00000  -0.00000

 Dipole moment (field-independent basis, Debye):
    X=             -2.9862    Y=             -1.1795    Z=              0.4491  Tot=              3.2420
 Quadrupole moment (field-independent basis, Debye-Ang):
   XX=           -160.4905   YY=           -189.0431   ZZ=           -214.9369
   XY=            -23.5958   XZ=             -3.6203   YZ=              0.4213

 Normal termination of Gaussian 16 at Thu Jul 23 18:40:50 2020.
