 Gaussian 16, Revision A.03,
 Gaussian 16:  EM64L-G16RevA.03 25-Dec-2016

 ---------------------------------------------------------------
 #P uLC-wPBE/cc-pVDZ iop(3/107=0474600000, 3/108=0474600000) opt
 ---------------------------------------------------------------

 -------------
 H26 C33 N6 O3
 -------------
 Symbolic Z-matrix:
 Charge =  0 Multiplicity = 1

 SCF Done:  E(ULC-wPBE) =  -1825.99411476     A.U. after   16 cycles
 SCF Done:  E(ULC-wPBE) =  -1826.07050187     A.U. after   15 cycles
 SCF Done:  E(ULC-wPBE) =  -1826.12287590     A.U. after   14 cycles
 SCF Done:  E(ULC-wPBE) =  -1826.13602117     A.U. after   14 cycles
 SCF Done:  E(ULC-wPBE) =  -1826.13824996     A.U. after   14 cycles
 SCF Done:  E(ULC-wPBE) =  -1826.13913800     A.U. after   13 cycles
 SCF Done:  E(ULC-wPBE) =  -1826.13993382     A.U. after   14 cycles
 SCF Done:  E(ULC-wPBE) =  -1826.14028995     A.U. after   13 cycles
 SCF Done:  E(ULC-wPBE) =  -1826.14088701     A.U. after   15 cycles
 SCF Done:  E(ULC-wPBE) =  -1826.14111821     A.U. after   14 cycles
 SCF Done:  E(ULC-wPBE) =  -1826.14186856     A.U. after   14 cycles
 SCF Done:  E(ULC-wPBE) =  -1826.14200960     A.U. after   13 cycles
 SCF Done:  E(ULC-wPBE) =  -1826.14209959     A.U. after   13 cycles
 SCF Done:  E(ULC-wPBE) =  -1826.14207556     A.U. after   12 cycles
 SCF Done:  E(ULC-wPBE) =  -1826.14212796     A.U. after   13 cycles
 SCF Done:  E(ULC-wPBE) =  -1826.14212986     A.U. after    9 cycles
 SCF Done:  E(ULC-wPBE) =  -1826.14213041     A.U. after    9 cycles
 SCF Done:  E(ULC-wPBE) =  -1826.14213048     A.U. after   12 cycles
 SCF Done:  E(ULC-wPBE) =  -1826.14213050     A.U. after    7 cycles
 SCF Done:  E(ULC-wPBE) =  -1826.14213071     A.U. after    8 cycles
 Optimization completed.
    -- Stationary point found.

                         Standard orientation:
 ---------------------------------------------------------------------
 Center     Atomic      Atomic             Coordinates (Angstroms)
 Number     Number       Type             X           Y           Z
 ---------------------------------------------------------------------
      1          6           0       12.065285   -0.461109   -0.824806
      2          6           0       11.598086    0.329289    0.210041
      3          6           0       10.234583    0.415924    0.419399
      4          6           0        9.382504   -0.285426   -0.426484
      5          7           0        9.825563   -1.044016   -1.422673
      6          6           0       11.134168   -1.126624   -1.605174
      7          6           0        7.899151   -0.186749   -0.300451
      8          7           0        7.227350   -0.014237   -1.424232
      9          6           0        5.907005    0.074417   -1.389313
     10          6           0        5.166064   -0.005385   -0.220033
     11          6           0        5.865440   -0.197728    0.967560
     12          6           0        7.244991   -0.290850    0.937361
     13          8           0        8.014065   -0.478255    2.030754
     14          6           0        7.375895   -0.683491    3.263953
     15          6           0        3.693323    0.103480   -0.234674
     16          6           0        3.030646    1.025703   -1.034772
     17          6           0        1.651863    1.085766   -1.004624
     18          6           0        0.958449    0.212084   -0.175273
     19          7           0        1.578374   -0.679365    0.589924
     20          6           0        2.898179   -0.722472    0.554811
     21          6           0       -0.531645    0.181037   -0.130077
     22          7           0       -1.090876   -1.015125   -0.145432
     23          6           0       -2.409656   -1.121957   -0.101261
     24          6           0       -3.261556   -0.029748   -0.033276
     25          6           0       -2.680171    1.234106   -0.004669
     26          6           0       -1.303164    1.351600   -0.054761
     27          8           0       -0.642775    2.529241   -0.032508
     28          6           0       -1.390480    3.707306    0.116192
     29          6           0       -4.727773   -0.199788    0.013648
     30          6           0       -5.531425    0.544987    0.867379
     31          6           0       -6.896917    0.343791    0.865745
     32          6           0       -7.432587   -0.615772    0.014630
     33          7           0       -6.677074   -1.332954   -0.808885
     34          6           0       -5.372825   -1.121167   -0.806833
     35          6           0       -8.888255   -0.942403    0.010847
     36          7           0       -9.193175   -2.227587    0.005140
     37          6           0      -10.468211   -2.591730   -0.010275
     38          6           0      -11.504662   -1.681078   -0.028739
     39          6           0      -11.203850   -0.328373   -0.029508
     40          6           0       -9.874273    0.057050   -0.006108
     41          8           0       -9.454666    1.341313   -0.009941
     42          6           0      -10.421893    2.352336   -0.115245
     43          1           0       13.129025   -0.563278   -1.027105
     44          1           0       12.289230    0.875853    0.849512
     45          1           0        9.827573    1.018681    1.225686
     46          1           0       11.461548   -1.764702   -2.427946
     47          1           0        5.407212    0.197866   -2.350905
     48          1           0        5.321901   -0.255293    1.906551
     49          1           0        6.799260    0.198635    3.574561
     50          1           0        8.168883   -0.864498    3.992925
     51          1           0        6.712103   -1.558067    3.232262
     52          1           0        3.595245    1.707160   -1.669034
     53          1           0        1.113100    1.806598   -1.611655
     54          1           0        3.365573   -1.480644    1.186665
     55          1           0       -2.812203   -2.135457   -0.101405
     56          1           0       -3.315404    2.114714    0.038173
     57          1           0       -1.966153    3.702853    1.051829
     58          1           0       -2.073902    3.863683   -0.729730
     59          1           0       -0.668904    4.526730    0.146513
     60          1           0       -5.085592    1.267509    1.549694
     61          1           0       -7.545614    0.913842    1.523686
     62          1           0       -4.791631   -1.712298   -1.517119
     63          1           0      -10.664497   -3.664129   -0.009250
     64          1           0      -12.538948   -2.017140   -0.044703
     65          1           0      -12.003115    0.407040   -0.052460
     66          1           0      -11.007976    2.253836   -1.039124
     67          1           0      -11.102430    2.354678    0.747442
     68          1           0       -9.876162    3.298268   -0.139637
 ---------------------------------------------------------------------

 The electronic state is 1-A.
 Alpha  occ. eigenvalues --  -19.06449 -19.06428 -19.06040 -14.25244 -14.25168
 Alpha  occ. eigenvalues --  -14.24991 -14.24872 -14.24810 -14.24179 -10.23731
 Alpha  occ. eigenvalues --  -10.23654 -10.23380 -10.22740 -10.22713 -10.22261
 Alpha  occ. eigenvalues --  -10.20281 -10.20182 -10.20128 -10.20098 -10.19761
 Alpha  occ. eigenvalues --  -10.19708 -10.19483 -10.19451 -10.18820 -10.18785
 Alpha  occ. eigenvalues --  -10.18781 -10.18626 -10.18563 -10.18349 -10.18317
 Alpha  occ. eigenvalues --  -10.18255 -10.18218 -10.18129 -10.18077 -10.17984
 Alpha  occ. eigenvalues --  -10.17884 -10.17629 -10.17505 -10.17021 -10.16832
 Alpha  occ. eigenvalues --  -10.16379 -10.16329  -1.26275  -1.26239  -1.25876
 Alpha  occ. eigenvalues --   -1.14476  -1.14264  -1.13893  -1.12297  -1.11923
 Alpha  occ. eigenvalues --   -1.11514  -1.02296  -1.01535  -0.98751  -0.98043
 Alpha  occ. eigenvalues --   -0.97871  -0.97779  -0.97507  -0.96967  -0.96413
 Alpha  occ. eigenvalues --   -0.94053  -0.92413  -0.91006  -0.88830  -0.88452
 Alpha  occ. eigenvalues --   -0.87970  -0.84341  -0.82134  -0.80912  -0.80632
 Alpha  occ. eigenvalues --   -0.79091  -0.78945  -0.77902  -0.77398  -0.76842
 Alpha  occ. eigenvalues --   -0.76244  -0.75674  -0.74922  -0.70671  -0.70262
 Alpha  occ. eigenvalues --   -0.69846  -0.67863  -0.67697  -0.66930  -0.66894
 Alpha  occ. eigenvalues --   -0.66310  -0.66108  -0.64188  -0.63929  -0.63768
 Alpha  occ. eigenvalues --   -0.63598  -0.63413  -0.62625  -0.62303  -0.61762
 Alpha  occ. eigenvalues --   -0.61488  -0.60260  -0.59721  -0.59108  -0.58294
 Alpha  occ. eigenvalues --   -0.57874  -0.57542  -0.57350  -0.57121  -0.56542
 Alpha  occ. eigenvalues --   -0.56253  -0.55809  -0.55189  -0.55031  -0.54916
 Alpha  occ. eigenvalues --   -0.54453  -0.54352  -0.54086  -0.53555  -0.53357
 Alpha  occ. eigenvalues --   -0.52648  -0.52226  -0.51734  -0.50825  -0.50268
 Alpha  occ. eigenvalues --   -0.49706  -0.48127  -0.48045  -0.47873  -0.47521
 Alpha  occ. eigenvalues --   -0.47391  -0.46862  -0.43672  -0.42467  -0.40678
 Alpha  occ. eigenvalues --   -0.40127  -0.40010  -0.39692  -0.38905  -0.38279
 Alpha  occ. eigenvalues --   -0.38180  -0.37987  -0.37590  -0.37359  -0.37186
 Alpha  occ. eigenvalues --   -0.36995  -0.36856  -0.34230  -0.32931  -0.31505
 Alpha virt. eigenvalues --    0.01584   0.03569   0.05718   0.06866   0.06973
 Alpha virt. eigenvalues --    0.07597   0.07711   0.07898   0.08268   0.09311
 Alpha virt. eigenvalues --    0.11662   0.13231   0.14756   0.15126   0.15460

  Beta  occ. eigenvalues --  -19.06449 -19.06428 -19.06040 -14.25244 -14.25168
  Beta  occ. eigenvalues --  -14.24991 -14.24872 -14.24810 -14.24179 -10.23731
  Beta  occ. eigenvalues --  -10.23654 -10.23380 -10.22740 -10.22713 -10.22261
  Beta  occ. eigenvalues --  -10.20281 -10.20182 -10.20128 -10.20098 -10.19761
  Beta  occ. eigenvalues --  -10.19708 -10.19483 -10.19451 -10.18820 -10.18785
  Beta  occ. eigenvalues --  -10.18781 -10.18626 -10.18563 -10.18349 -10.18317
  Beta  occ. eigenvalues --  -10.18255 -10.18218 -10.18129 -10.18077 -10.17984
  Beta  occ. eigenvalues --  -10.17884 -10.17629 -10.17505 -10.17021 -10.16832
  Beta  occ. eigenvalues --  -10.16379 -10.16329  -1.26275  -1.26239  -1.25876
  Beta  occ. eigenvalues --   -1.14476  -1.14264  -1.13893  -1.12297  -1.11923
  Beta  occ. eigenvalues --   -1.11514  -1.02296  -1.01535  -0.98751  -0.98043
  Beta  occ. eigenvalues --   -0.97871  -0.97779  -0.97507  -0.96967  -0.96413
  Beta  occ. eigenvalues --   -0.94053  -0.92413  -0.91006  -0.88830  -0.88452
  Beta  occ. eigenvalues --   -0.87970  -0.84341  -0.82134  -0.80912  -0.80632
  Beta  occ. eigenvalues --   -0.79091  -0.78945  -0.77902  -0.77398  -0.76842
  Beta  occ. eigenvalues --   -0.76244  -0.75674  -0.74922  -0.70671  -0.70262
  Beta  occ. eigenvalues --   -0.69846  -0.67863  -0.67697  -0.66930  -0.66894
  Beta  occ. eigenvalues --   -0.66310  -0.66108  -0.64188  -0.63929  -0.63768
  Beta  occ. eigenvalues --   -0.63598  -0.63413  -0.62625  -0.62303  -0.61762
  Beta  occ. eigenvalues --   -0.61488  -0.60260  -0.59721  -0.59108  -0.58294
  Beta  occ. eigenvalues --   -0.57874  -0.57542  -0.57350  -0.57121  -0.56542
  Beta  occ. eigenvalues --   -0.56253  -0.55809  -0.55189  -0.55031  -0.54916
  Beta  occ. eigenvalues --   -0.54453  -0.54352  -0.54086  -0.53555  -0.53357
  Beta  occ. eigenvalues --   -0.52648  -0.52226  -0.51734  -0.50825  -0.50268
  Beta  occ. eigenvalues --   -0.49706  -0.48127  -0.48045  -0.47873  -0.47521
  Beta  occ. eigenvalues --   -0.47391  -0.46862  -0.43672  -0.42467  -0.40678
  Beta  occ. eigenvalues --   -0.40127  -0.40010  -0.39692  -0.38905  -0.38279
  Beta  occ. eigenvalues --   -0.38180  -0.37987  -0.37590  -0.37359  -0.37186
  Beta  occ. eigenvalues --   -0.36995  -0.36856  -0.34230  -0.32931  -0.31505
  Beta virt. eigenvalues --    0.01584   0.03569   0.05718   0.06866   0.06973
  Beta virt. eigenvalues --    0.07597   0.07711   0.07898   0.08268   0.09311
  Beta virt. eigenvalues --    0.11662   0.13231   0.14756   0.15126   0.15460

 Mulliken charges and spin densities:
               1          2
     1  C   -0.078394   0.000000
     2  C    0.044874  -0.000000
     3  C   -0.008043  -0.000000
     4  C    0.069258  -0.000000
     5  N   -0.185602   0.000000
     6  C    0.079441  -0.000000
     7  C    0.035701   0.000000
     8  N   -0.167400   0.000000
     9  C    0.074252  -0.000000
    10  C   -0.082529  -0.000000
    11  C    0.008330  -0.000000
    12  C    0.127167   0.000000
    13  O   -0.265426  -0.000000
    14  C    0.031486   0.000000
    15  C   -0.091199   0.000000
    16  C    0.051936  -0.000000
    17  C    0.011553   0.000000
    18  C    0.072592  -0.000000
    19  N   -0.181383   0.000000
    20  C    0.085825  -0.000000
    21  C    0.031459   0.000000
    22  N   -0.166267  -0.000000
    23  C    0.077923   0.000000
    24  C   -0.085348  -0.000000
    25  C    0.008946  -0.000000
    26  C    0.126504   0.000000
    27  O   -0.266234   0.000000
    28  C    0.032261   0.000000
    29  C   -0.093622   0.000000
    30  C    0.049345  -0.000000
    31  C    0.010379   0.000000
    32  C    0.077874   0.000000
    33  N   -0.181191  -0.000000
    34  C    0.091904  -0.000000
    35  C    0.027450  -0.000000
    36  N   -0.171870   0.000000
    37  C    0.070282   0.000000
    38  C   -0.062762  -0.000000
    39  C   -0.013300   0.000000
    40  C    0.117591   0.000000
    41  O   -0.266204   0.000000
    42  C    0.030653  -0.000000
    43  H    0.019947  -0.000000
    44  H    0.021683   0.000000
    45  H    0.016135  -0.000000
    46  H    0.027882  -0.000000
    47  H    0.022484   0.000000
    48  H    0.020258   0.000000
    49  H    0.056594   0.000000
    50  H    0.071457  -0.000000
    51  H    0.059058  -0.000000
    52  H    0.018063   0.000000
    53  H    0.017177   0.000000
    54  H    0.023667  -0.000000
    55  H    0.027726   0.000000
    56  H    0.016643  -0.000000
    57  H    0.055479   0.000000
    58  H    0.057731  -0.000000
    59  H    0.072075   0.000000
    60  H    0.012027   0.000000
    61  H    0.015888   0.000000
    62  H    0.029412   0.000000
    63  H    0.027793   0.000000
    64  H    0.022458   0.000000
    65  H    0.026098  -0.000000
    66  H    0.058315   0.000000
    67  H    0.055469  -0.000000
    68  H    0.070270  -0.000000
 Sum of Mulliken charges =  -0.00000  -0.00000

 Dipole moment (field-independent basis, Debye):
    X=             -4.1222    Y=              7.9137    Z=              4.1434  Tot=              9.8381
 Quadrupole moment (field-independent basis, Debye-Ang):
   XX=           -156.0397   YY=           -225.6810   ZZ=           -231.9052
   XY=            -26.8563   XZ=             21.5340   YZ=             -1.8770

 Normal termination of Gaussian 16 at Mon Jul 27 14:12:40 2020.
