 Gaussian 16, Revision A.03,
 Gaussian 16:  EM64L-G16RevA.03 25-Dec-2016

 ---------------------------------------------------------------
 #P uLC-wPBE/cc-pVDZ iop(3/107=0377900000, 3/108=0377900000) opt
 ---------------------------------------------------------------

 ---------------
 H8 C21 S6 N3 F3
 ---------------
 Symbolic Z-matrix:
 Charge =  0 Multiplicity = 1

 SCF Done:  E(ULC-wPBE) =  -3656.33955609     A.U. after   17 cycles
 SCF Done:  E(ULC-wPBE) =  -3656.38622935     A.U. after   13 cycles
 SCF Done:  E(ULC-wPBE) =  -3656.40926379     A.U. after   14 cycles
 SCF Done:  E(ULC-wPBE) =  -3656.41016502     A.U. after   13 cycles
 SCF Done:  E(ULC-wPBE) =  -3656.41031860     A.U. after   12 cycles
 SCF Done:  E(ULC-wPBE) =  -3656.41040860     A.U. after   11 cycles
 SCF Done:  E(ULC-wPBE) =  -3656.41041485     A.U. after   11 cycles
 SCF Done:  E(ULC-wPBE) =  -3656.41042269     A.U. after   10 cycles
 SCF Done:  E(ULC-wPBE) =  -3656.41042405     A.U. after    9 cycles
 SCF Done:  E(ULC-wPBE) =  -3656.41042645     A.U. after   11 cycles
 SCF Done:  E(ULC-wPBE) =  -3656.41073449     A.U. after   13 cycles
 SCF Done:  E(ULC-wPBE) =  -3656.41079176     A.U. after   12 cycles
 SCF Done:  E(ULC-wPBE) =  -3656.41082466     A.U. after   13 cycles
 SCF Done:  E(ULC-wPBE) =  -3656.41083604     A.U. after   12 cycles
 SCF Done:  E(ULC-wPBE) =  -3656.41084664     A.U. after   12 cycles
 SCF Done:  E(ULC-wPBE) =  -3656.41084940     A.U. after   11 cycles
 SCF Done:  E(ULC-wPBE) =  -3656.41085026     A.U. after   11 cycles
 SCF Done:  E(ULC-wPBE) =  -3656.41085038     A.U. after    8 cycles
 SCF Done:  E(ULC-wPBE) =  -3656.41085020     A.U. after    9 cycles
 SCF Done:  E(ULC-wPBE) =  -3656.41085025     A.U. after    7 cycles
 Optimization completed.
    -- Stationary point found.

                         Standard orientation:
 ---------------------------------------------------------------------
 Center     Atomic      Atomic             Coordinates (Angstroms)
 Number     Number       Type             X           Y           Z
 ---------------------------------------------------------------------
      1          6           0       10.791414   -0.704894   -0.183477
      2          6           0       10.484935    0.612499   -0.350257
      3          6           0        9.083668    0.805920   -0.282259
      4          9           0        8.515172    2.009965   -0.415400
      5          6           0        8.355329   -0.331097   -0.070412
      6         16           0        9.411080   -1.690162    0.051139
      7          6           0        6.916842   -0.497032    0.050935
      8          7           0        6.359372   -1.657146    0.254489
      9          6           0        5.004061   -1.531203    0.335040
     10          6           0        4.503691   -0.267794    0.189675
     11         16           0        5.811849    0.831168   -0.067396
     12          6           0        3.115447    0.174776    0.232271
     13          6           0        2.639678    1.415243    0.566002
     14          6           0        1.228666    1.449982    0.503146
     15          9           0        0.525335    2.549758    0.792763
     16          6           0        0.636296    0.275461    0.133908
     17         16           0        1.842972   -0.921067   -0.168132
     18          6           0       -0.770976   -0.044330   -0.024154
     19          7           0       -1.182463   -1.226879   -0.386114
     20          6           0       -2.543250   -1.257336   -0.467629
     21          6           0       -3.194329   -0.094587   -0.164007
     22         16           0       -2.029940    1.111532    0.253864
     23          6           0       -4.626445    0.178243   -0.165909
     24          6           0       -5.250821    1.384283   -0.341662
     25          6           0       -6.656134    1.239621   -0.292218
     26          9           0       -7.487492    2.276085   -0.444921
     27          6           0       -7.099723   -0.035379   -0.086284
     28         16           0       -5.755813   -1.105951    0.072401
     29          6           0       -8.458047   -0.544769    0.012745
     30          7           0       -8.714912   -1.805979    0.212629
     31          6           0      -10.066223   -2.016338    0.266397
     32          6           0      -10.843534   -0.912764    0.107052
     33         16           0       -9.854721    0.469823   -0.123313
     34          1           0       11.782608   -1.155302   -0.187143
     35          1           0       11.202393    1.414500   -0.513723
     36          1           0        4.396126   -2.417574    0.522082
     37          1           0        3.253353    2.264055    0.863838
     38          1           0       -3.038891   -2.178394   -0.777539
     39          1           0       -4.746337    2.332947   -0.519111
     40          1           0      -10.441396   -3.026864    0.429230
     41          1           0      -11.929070   -0.842125    0.112945
 ---------------------------------------------------------------------

 The electronic state is 1-A.
 Alpha  occ. eigenvalues --  -88.33196 -88.33105 -88.33105 -88.32874 -88.32720
 Alpha  occ. eigenvalues --  -88.32282 -24.51724 -24.51580 -24.51223 -14.22008
 Alpha  occ. eigenvalues --  -14.21959 -14.21165 -10.21660 -10.21416 -10.21164
 Alpha  occ. eigenvalues --  -10.20240 -10.20151 -10.19289 -10.18000 -10.17600
 Alpha  occ. eigenvalues --  -10.16815 -10.16700 -10.16471 -10.16285 -10.16257
 Alpha  occ. eigenvalues --  -10.16051 -10.15558 -10.15397 -10.14568 -10.14439
 Alpha  occ. eigenvalues --  -10.13850 -10.13624 -10.13527  -7.93961  -7.93870
 Alpha  occ. eigenvalues --   -7.93772  -7.93554  -7.93388  -7.93055  -5.95554
 Alpha  occ. eigenvalues --   -5.95464  -5.95406  -5.95171  -5.95036  -5.95021
 Alpha  occ. eigenvalues --   -5.94946  -5.94874  -5.94636  -5.94633  -5.94633
 Alpha  occ. eigenvalues --   -5.94542  -5.94489  -5.94395  -5.94211  -5.94115
 Alpha  occ. eigenvalues --   -5.94012  -5.93756  -1.36249  -1.36070  -1.35747
 Alpha  occ. eigenvalues --   -1.12684  -1.12572  -1.11620  -1.06351  -1.05754
 Alpha  occ. eigenvalues --   -1.05493  -0.97590  -0.97009  -0.94834  -0.94132
 Alpha  occ. eigenvalues --   -0.93377  -0.92325  -0.90059  -0.89828  -0.89144
 Alpha  occ. eigenvalues --   -0.87906  -0.86095  -0.84906  -0.78387  -0.77648
 Alpha  occ. eigenvalues --   -0.76070  -0.75057  -0.73833  -0.72551  -0.71841
 Alpha  occ. eigenvalues --   -0.70456  -0.70096  -0.69262  -0.68761  -0.68134
 Alpha  occ. eigenvalues --   -0.66780  -0.65197  -0.63526  -0.61842  -0.61619
 Alpha  occ. eigenvalues --   -0.61521  -0.61446  -0.61293  -0.61117  -0.59553
 Alpha  occ. eigenvalues --   -0.59153  -0.58553  -0.58220  -0.57241  -0.57169
 Alpha  occ. eigenvalues --   -0.56461  -0.55906  -0.55827  -0.55657  -0.54258
 Alpha  occ. eigenvalues --   -0.53177  -0.52460  -0.51882  -0.51576  -0.51076
 Alpha  occ. eigenvalues --   -0.50882  -0.50499  -0.49674  -0.48874  -0.48604
 Alpha  occ. eigenvalues --   -0.47625  -0.47579  -0.47094  -0.46753  -0.44405
 Alpha  occ. eigenvalues --   -0.42222  -0.40142  -0.40013  -0.39945  -0.39861
 Alpha  occ. eigenvalues --   -0.39396  -0.39327  -0.38425  -0.36996  -0.36734
 Alpha  occ. eigenvalues --   -0.36619  -0.34756  -0.31804  -0.29443
 Alpha virt. eigenvalues --   -0.02159   0.00182   0.02667   0.05864   0.08201
 Alpha virt. eigenvalues --    0.09714   0.10055   0.10600   0.10874   0.11288
 Alpha virt. eigenvalues --    0.11552   0.12260   0.12744   0.13733   0.14456

  Beta  occ. eigenvalues --  -88.33196 -88.33105 -88.33105 -88.32874 -88.32720
  Beta  occ. eigenvalues --  -88.32282 -24.51724 -24.51580 -24.51223 -14.22008
  Beta  occ. eigenvalues --  -14.21959 -14.21165 -10.21660 -10.21416 -10.21164
  Beta  occ. eigenvalues --  -10.20240 -10.20151 -10.19289 -10.18000 -10.17600
  Beta  occ. eigenvalues --  -10.16815 -10.16700 -10.16471 -10.16285 -10.16257
  Beta  occ. eigenvalues --  -10.16051 -10.15558 -10.15397 -10.14568 -10.14439
  Beta  occ. eigenvalues --  -10.13850 -10.13624 -10.13527  -7.93961  -7.93870
  Beta  occ. eigenvalues --   -7.93772  -7.93554  -7.93388  -7.93055  -5.95554
  Beta  occ. eigenvalues --   -5.95464  -5.95406  -5.95171  -5.95036  -5.95021
  Beta  occ. eigenvalues --   -5.94946  -5.94874  -5.94636  -5.94633  -5.94633
  Beta  occ. eigenvalues --   -5.94542  -5.94489  -5.94395  -5.94211  -5.94115
  Beta  occ. eigenvalues --   -5.94012  -5.93756  -1.36249  -1.36070  -1.35747
  Beta  occ. eigenvalues --   -1.12684  -1.12572  -1.11620  -1.06351  -1.05754
  Beta  occ. eigenvalues --   -1.05493  -0.97590  -0.97009  -0.94834  -0.94132
  Beta  occ. eigenvalues --   -0.93377  -0.92325  -0.90059  -0.89828  -0.89144
  Beta  occ. eigenvalues --   -0.87906  -0.86095  -0.84906  -0.78387  -0.77648
  Beta  occ. eigenvalues --   -0.76070  -0.75057  -0.73833  -0.72551  -0.71841
  Beta  occ. eigenvalues --   -0.70456  -0.70096  -0.69262  -0.68761  -0.68134
  Beta  occ. eigenvalues --   -0.66780  -0.65197  -0.63526  -0.61842  -0.61619
  Beta  occ. eigenvalues --   -0.61521  -0.61446  -0.61293  -0.61117  -0.59553
  Beta  occ. eigenvalues --   -0.59153  -0.58553  -0.58220  -0.57241  -0.57169
  Beta  occ. eigenvalues --   -0.56461  -0.55906  -0.55827  -0.55657  -0.54258
  Beta  occ. eigenvalues --   -0.53177  -0.52460  -0.51882  -0.51576  -0.51076
  Beta  occ. eigenvalues --   -0.50882  -0.50499  -0.49674  -0.48874  -0.48604
  Beta  occ. eigenvalues --   -0.47625  -0.47579  -0.47094  -0.46753  -0.44405
  Beta  occ. eigenvalues --   -0.42222  -0.40142  -0.40013  -0.39945  -0.39861
  Beta  occ. eigenvalues --   -0.39396  -0.39327  -0.38425  -0.36996  -0.36734
  Beta  occ. eigenvalues --   -0.36619  -0.34756  -0.31804  -0.29443
  Beta virt. eigenvalues --   -0.02159   0.00182   0.02667   0.05864   0.08201
  Beta virt. eigenvalues --    0.09714   0.10055   0.10600   0.10874   0.11288
  Beta virt. eigenvalues --    0.11552   0.12260   0.12744   0.13733   0.14456

 Mulliken charges and spin densities:
               1          2
     1  C   -0.135089   0.000000
     2  C    0.048011   0.000000
     3  C    0.100393   0.000000
     4  F   -0.119251  -0.000000
     5  C   -0.189729  -0.000000
     6  S    0.229630   0.000000
     7  C    0.057993   0.000000
     8  N   -0.195551   0.000000
     9  C    0.129270  -0.000000
    10  C   -0.191995  -0.000000
    11  S    0.184426  -0.000000
    12  C   -0.136574   0.000000
    13  C    0.034316  -0.000000
    14  C    0.117442   0.000000
    15  F   -0.115692   0.000000
    16  C   -0.182629   0.000000
    17  S    0.241237   0.000000
    18  C    0.048908  -0.000000
    19  N   -0.196741  -0.000000
    20  C    0.129550  -0.000000
    21  C   -0.189128   0.000000
    22  S    0.185009   0.000000
    23  C   -0.139474   0.000000
    24  C    0.031313  -0.000000
    25  C    0.118785  -0.000000
    26  F   -0.116973   0.000000
    27  C   -0.171320   0.000000
    28  S    0.237827  -0.000000
    29  C    0.024522  -0.000000
    30  N   -0.202156  -0.000000
    31  C    0.114702  -0.000000
    32  C   -0.189067   0.000000
    33  S    0.176291  -0.000000
    34  H    0.051555  -0.000000
    35  H    0.026634  -0.000000
    36  H    0.031860   0.000000
    37  H    0.026629  -0.000000
    38  H    0.031588   0.000000
    39  H    0.025134   0.000000
    40  H    0.021423  -0.000000
    41  H    0.046920  -0.000000
 Sum of Mulliken charges =  -0.00000   0.00000

 Dipole moment (field-independent basis, Debye):
    X=              2.0526    Y=              1.3724    Z=             -0.0391  Tot=              2.4695
 Quadrupole moment (field-independent basis, Debye-Ang):
   XX=           -152.9511   YY=           -223.5101   ZZ=           -230.2058
   XY=              5.0263   XZ=             -0.9637   YZ=             -0.0214

 Normal termination of Gaussian 16 at Fri Jul 24 17:18:48 2020.
