 Gaussian 16, Revision A.03,
 Gaussian 16:  EM64L-G16RevA.03 25-Dec-2016

 ---------------------------------------------------------------
 #P uLC-wPBE/cc-pVDZ iop(3/107=0312300000, 3/108=0312300000) opt
 ---------------------------------------------------------------

 -------------
 H37 C70 S7 F7
 -------------
 Symbolic Z-matrix:
 Charge =  0 Multiplicity = 1

 SCF Done:  E(ULC-wPBE) =  -6172.50865946     A.U. after   16 cycles
 SCF Done:  E(ULC-wPBE) =  -6172.59921968     A.U. after   13 cycles
 SCF Done:  E(ULC-wPBE) =  -6172.68668515     A.U. after   15 cycles
 SCF Done:  E(ULC-wPBE) =  -6172.71053236     A.U. after   14 cycles
 SCF Done:  E(ULC-wPBE) =  -6172.71696055     A.U. after   15 cycles
 SCF Done:  E(ULC-wPBE) =  -6172.71932034     A.U. after   15 cycles
 SCF Done:  E(ULC-wPBE) =  -6172.71921281     A.U. after   16 cycles
 SCF Done:  E(ULC-wPBE) =  -6172.72077276     A.U. after   13 cycles
 SCF Done:  E(ULC-wPBE) =  -6172.72158453     A.U. after   15 cycles
 SCF Done:  E(ULC-wPBE) =  -6172.72173220     A.U. after   13 cycles
 SCF Done:  E(ULC-wPBE) =  -6172.72195824     A.U. after   11 cycles
 SCF Done:  E(ULC-wPBE) =  -6172.72196076     A.U. after   11 cycles
 SCF Done:  E(ULC-wPBE) =  -6172.72196134     A.U. after    7 cycles
 SCF Done:  E(ULC-wPBE) =  -6172.72196143     A.U. after   10 cycles
 SCF Done:  E(ULC-wPBE) =  -6172.72196156     A.U. after   10 cycles
 SCF Done:  E(ULC-wPBE) =  -6172.72196149     A.U. after    6 cycles
 SCF Done:  E(ULC-wPBE) =  -6172.72196143     A.U. after    6 cycles
 SCF Done:  E(ULC-wPBE) =  -6172.72196144     A.U. after    6 cycles
 SCF Done:  E(ULC-wPBE) =  -6172.72196143     A.U. after    6 cycles
 SCF Done:  E(ULC-wPBE) =  -6172.72196148     A.U. after    6 cycles
 Optimization completed on the basis of negligible forces.
    -- Stationary point found.

                         Standard orientation:
 ---------------------------------------------------------------------
 Center     Atomic      Atomic             Coordinates (Angstroms)
 Number     Number       Type             X           Y           Z
 ---------------------------------------------------------------------
      1          6           0       25.911466    0.208052   -0.128097
      2          6           0       24.810737    0.556052    0.652966
      3          6           0       23.600521   -0.107989    0.483942
      4          6           0       23.443845   -1.129625   -0.465552
      5          6           0       24.573277   -1.449637   -1.227815
      6          9           0       24.490617   -2.423265   -2.158711
      7          6           0       25.791341   -0.804263   -1.075299
      8          6           0       22.156025   -1.820485   -0.656473
      9          6           0       21.904112   -3.089105   -1.121000
     10          6           0       20.520602   -3.411683   -1.142397
     11          6           0       19.716324   -2.389691   -0.701937
     12         16           0       20.670839   -1.013031   -0.266777
     13          6           0       18.247558   -2.366737   -0.590503
     14          6           0       17.590627   -1.589948    0.373651
     15          6           0       16.205608   -1.596042    0.466987
     16          6           0       15.403625   -2.369582   -0.385644
     17          6           0       16.087551   -3.137226   -1.335635
     18          9           0       15.387125   -3.901935   -2.198643
     19          6           0       17.466783   -3.144006   -1.453040
     20          6           0       13.934493   -2.363422   -0.294207
     21          6           0       13.029980   -3.327833   -0.670575
     22          6           0       11.683004   -2.965478   -0.401922
     23          6           0       11.556815   -1.724634    0.172474
     24         16           0       13.110995   -0.990122    0.374092
     25          6           0       10.324084   -1.030232    0.582838
     26          6           0       10.309725   -0.111198    1.641658
     27          6           0        9.134835    0.527381    2.013502
     28          6           0        7.914434    0.275183    1.368429
     29          6           0        7.962210   -0.639985    0.312221
     30          9           0        6.830020   -0.911944   -0.370525
     31          6           0        9.122357   -1.280181   -0.088042
     32          6           0        6.674719    0.934820    1.813370
     33          6           0        6.424278    1.452634    3.063483
     34          6           0        5.156289    2.080110    3.169513
     35          6           0        4.438117    2.040679    1.998890
     36         16           0        5.327311    1.222883    0.762137
     37          6           0        3.088273    2.573443    1.742705
     38          6           0        2.223304    1.982003    0.811805
     39          6           0        0.954530    2.500911    0.592682
     40          6           0        0.474865    3.620084    1.289920
     41          6           0        1.360719    4.188868    2.212276
     42          9           0        0.977843    5.273260    2.918465
     43          6           0        2.634904    3.698134    2.440463
     44          6           0       -0.878678    4.156211    1.069306
     45          6           0       -1.359692    5.428684    1.267421
     46          6           0       -2.728391    5.570195    0.913439
     47          6           0       -3.295272    4.406832    0.454822
     48         16           0       -2.131487    3.125870    0.453008
     49          6           0       -4.681882    4.181515    0.010043
     50          6           0       -5.423177    5.221587   -0.569210
     51          6           0       -6.736198    5.020059   -0.970358
     52          6           0       -7.373088    3.776189   -0.837774
     53          6           0       -6.609297    2.760253   -0.256152
     54          9           0       -7.164107    1.542917   -0.078623
     55          6           0       -5.302108    2.937703    0.164840
     56          6           0       -8.753040    3.580106   -1.314585
     57          6           0       -9.397433    4.311488   -2.285827
     58          6           0      -10.746839    3.920089   -2.482998
     59          6           0      -11.132504    2.888802   -1.661122
     60         16           0       -9.825025    2.395507   -0.643145
     61          6           0      -12.443945    2.220141   -1.595624
     62          6           0      -12.570259    0.871806   -1.234260
     63          6           0      -13.816844    0.262397   -1.191935
     64          6           0      -14.997118    0.953729   -1.504649
     65          6           0      -14.839089    2.297129   -1.864702
     66          9           0      -15.927020    3.034041   -2.171639
     67          6           0      -13.608481    2.929461   -1.909214
     68          6           0      -16.318941    0.308721   -1.445155
     69          6           0      -17.477090    0.622605   -2.116023
     70          6           0      -18.553734   -0.252863   -1.811794
     71          6           0      -18.222129   -1.229807   -0.905722
     72         16           0      -16.571247   -1.063515   -0.413422
     73          6           0      -19.077013   -2.298866   -0.360637
     74          6           0      -18.551757   -3.537788    0.032366
     75          6           0      -19.379651   -4.535466    0.529119
     76          6           0      -20.764200   -4.354630    0.664894
     77          6           0      -21.259561   -3.113040    0.255070
     78          9           0      -22.583923   -2.872135    0.350043
     79          6           0      -20.456297   -2.099732   -0.239432
     80          6           0      -21.613106   -5.417988    1.231698
     81          6           0      -21.214837   -6.406595    2.101458
     82          6           0      -22.252326   -7.325768    2.422520
     83          6           0      -23.425715   -7.023433    1.789087
     84         16           0      -23.284432   -5.619178    0.814269
     85          1           0       26.868769    0.722113    0.000120
     86          1           0       24.894994    1.345967    1.404895
     87          1           0       22.745931    0.160338    1.113654
     88          1           0       26.627516   -1.108597   -1.710575
     89          1           0       22.693736   -3.776625   -1.424321
     90          1           0       20.131705   -4.385230   -1.449807
     91          1           0       18.172995   -0.988247    1.077912
     92          1           0       15.722429   -0.993963    1.243167
     93          1           0       17.915738   -3.748015   -2.245580
     94          1           0       13.326977   -4.278246   -1.113928
     95          1           0       10.830188   -3.618008   -0.602972
     96          1           0       11.232920    0.103822    2.188326
     97          1           0        9.159066    1.255983    2.828624
     98          1           0        9.071250   -1.960827   -0.941517
     99          1           0        7.124054    1.362753    3.897201
    100          1           0        4.770424    2.516604    4.093536
    101          1           0        2.543435    1.095420    0.256249
    102          1           0        0.307265    2.024290   -0.150517
    103          1           0        3.269390    4.220622    3.160883
    104          1           0       -0.745054    6.240798    1.655469
    105          1           0       -3.287142    6.502687    1.021129
    106          1           0       -4.959836    6.201008   -0.716285
    107          1           0       -7.297409    5.855484   -1.398327
    108          1           0       -4.788010    2.090356    0.627374
    109          1           0       -8.906370    5.096450   -2.865130
    110          1           0      -11.403652    4.363157   -3.234991
    111          1           0      -11.677197    0.282761   -1.004832
    112          1           0      -13.881324   -0.797425   -0.925415
    113          1           0      -13.581118    3.990681   -2.169392
    114          1           0      -17.547679    1.450727   -2.821216
    115          1           0      -19.541506   -0.179321   -2.272635
    116          1           0      -17.480880   -3.734309   -0.077349
    117          1           0      -18.947207   -5.502376    0.801498
    118          1           0      -20.924825   -1.148595   -0.504559
    119          1           0      -20.205938   -6.462279    2.516657
    120          1           0      -22.132181   -8.171842    3.102636
    121          1           0      -24.381199   -7.545770    1.856837
 ---------------------------------------------------------------------

 Alpha  occ. eigenvalues --   -0.58111  -0.57853  -0.57706  -0.57612  -0.57587
 Alpha  occ. eigenvalues --   -0.57479  -0.57430  -0.57327  -0.57157  -0.56888
 Alpha  occ. eigenvalues --   -0.56455  -0.55842  -0.55246  -0.54928  -0.54766
 Alpha  occ. eigenvalues --   -0.54689  -0.54545  -0.54501  -0.54237  -0.54106
 Alpha  occ. eigenvalues --   -0.53740  -0.52326  -0.52167  -0.52078  -0.51947
 Alpha  occ. eigenvalues --   -0.51871  -0.51766  -0.51631  -0.51569  -0.51454
 Alpha  occ. eigenvalues --   -0.51377  -0.51271  -0.51037  -0.50923  -0.50648
 Alpha  occ. eigenvalues --   -0.50607  -0.50478  -0.50340  -0.50210  -0.50055
 Alpha  occ. eigenvalues --   -0.49992  -0.49671  -0.49633  -0.49447  -0.49328
 Alpha  occ. eigenvalues --   -0.49201  -0.49088  -0.48961  -0.48727  -0.48665
 Alpha  occ. eigenvalues --   -0.48239  -0.48187  -0.47761  -0.47578  -0.47385
 Alpha  occ. eigenvalues --   -0.47319  -0.47228  -0.47069  -0.47023  -0.46910
 Alpha  occ. eigenvalues --   -0.46686  -0.46658  -0.46477  -0.46307  -0.46006
 Alpha  occ. eigenvalues --   -0.45504  -0.45437  -0.45136  -0.45095  -0.44991
 Alpha  occ. eigenvalues --   -0.44929  -0.43515  -0.43476  -0.43416  -0.43238
 Alpha  occ. eigenvalues --   -0.43196  -0.43158  -0.43086  -0.41706  -0.41088
 Alpha  occ. eigenvalues --   -0.40355  -0.39436  -0.38434  -0.37422  -0.36687
 Alpha  occ. eigenvalues --   -0.35617  -0.35546  -0.35473  -0.35440  -0.35326
 Alpha  occ. eigenvalues --   -0.35297  -0.35227  -0.35205  -0.35179  -0.35132
 Alpha  occ. eigenvalues --   -0.35113  -0.35029  -0.34927  -0.34405  -0.33649
 Alpha  occ. eigenvalues --   -0.32627  -0.31453  -0.30235  -0.29163  -0.28247
 Alpha  occ. eigenvalues --   -0.27707
 Alpha virt. eigenvalues --   -0.01755  -0.01153  -0.00183   0.00908   0.02164
 Alpha virt. eigenvalues --    0.03380   0.04393   0.05359   0.05568   0.05639
 Alpha virt. eigenvalues --    0.05676   0.05755   0.05944   0.06130   0.06337

  Beta  occ. eigenvalues --  -88.28097 -88.28008 -88.27988 -88.27934 -88.27827
  Beta  occ. eigenvalues --  -88.27769 -88.27173 -24.46850 -24.46741 -24.46726
  Beta  occ. eigenvalues --  -24.46653 -24.46492 -24.46488 -24.46281 -10.16962
  Beta  occ. eigenvalues --  -10.16958 -10.16864 -10.16858 -10.16709 -10.16666
  Beta  occ. eigenvalues --  -10.16436 -10.12026 -10.12025 -10.11938 -10.11919
  Beta  occ. eigenvalues --  -10.11903 -10.11850 -10.11755 -10.11753 -10.11703
  Beta  occ. eigenvalues --  -10.11592 -10.11514 -10.11487 -10.11249 -10.11202
  Beta  occ. eigenvalues --  -10.11189 -10.11157 -10.11073 -10.11008 -10.10997
  Beta  occ. eigenvalues --  -10.10938 -10.10905 -10.10891 -10.10840 -10.10783
  Beta  occ. eigenvalues --  -10.10735 -10.10463 -10.09983 -10.09768 -10.09758
  Beta  occ. eigenvalues --  -10.09674 -10.09615 -10.09475 -10.09471 -10.09391
  Beta  occ. eigenvalues --  -10.09347 -10.09298 -10.09270 -10.09249 -10.09205
  Beta  occ. eigenvalues --  -10.09122 -10.09079 -10.09071 -10.09071 -10.09012
  Beta  occ. eigenvalues --  -10.08924 -10.08895 -10.08796 -10.08775 -10.08675
  Beta  occ. eigenvalues --  -10.08665 -10.08651 -10.08580 -10.08577 -10.08575
  Beta  occ. eigenvalues --  -10.08561 -10.08483 -10.08470 -10.08381 -10.08379
  Beta  occ. eigenvalues --  -10.08308 -10.08183 -10.07918 -10.07814  -7.88695
  Beta  occ. eigenvalues --   -7.88605  -7.88588  -7.88500  -7.88394  -7.88365
  Beta  occ. eigenvalues --   -7.87752  -5.90494  -5.90404  -5.90387  -5.90305
  Beta  occ. eigenvalues --   -5.90199  -5.90165  -5.89992  -5.89902  -5.89885
  Beta  occ. eigenvalues --   -5.89788  -5.89681  -5.89663  -5.89591  -5.89549
  Beta  occ. eigenvalues --   -5.89502  -5.89483  -5.89407  -5.89300  -5.89262
  Beta  occ. eigenvalues --   -5.89029  -5.88676  -1.31103  -1.31001  -1.30987
  Beta  occ. eigenvalues --   -1.30902  -1.30745  -1.30731  -1.30548  -1.01552
  Beta  occ. eigenvalues --   -1.01427  -1.01260  -1.01134  -1.00979  -1.00825
  Beta  occ. eigenvalues --   -0.99915  -0.99169  -0.98866  -0.98483  -0.98136
  Beta  occ. eigenvalues --   -0.97750  -0.97490  -0.97296  -0.92489  -0.92029
  Beta  occ. eigenvalues --   -0.91388  -0.90685  -0.89871  -0.89087  -0.88589
  Beta  occ. eigenvalues --   -0.87200  -0.87066  -0.87013  -0.86924  -0.86831
  Beta  occ. eigenvalues --   -0.86606  -0.86472  -0.85784  -0.85457  -0.85161
  Beta  occ. eigenvalues --   -0.85059  -0.84946  -0.84914  -0.84764  -0.84586
  Beta  occ. eigenvalues --   -0.84322  -0.83673  -0.82646  -0.81592  -0.80577
  Beta  occ. eigenvalues --   -0.79837  -0.76659  -0.75933  -0.75303  -0.74741
  Beta  occ. eigenvalues --   -0.74083  -0.73981  -0.73859  -0.73581  -0.73294
  Beta  occ. eigenvalues --   -0.73025  -0.72930  -0.72532  -0.71993  -0.71892
  Beta  occ. eigenvalues --   -0.68381  -0.68182  -0.68021  -0.67727  -0.67696
  Beta  occ. eigenvalues --   -0.67594  -0.67481  -0.67187  -0.66998  -0.66649
  Beta  occ. eigenvalues --   -0.66404  -0.66020  -0.65782  -0.65444  -0.64226
  Beta  occ. eigenvalues --   -0.64073  -0.63686  -0.63569  -0.63213  -0.63032
  Beta  occ. eigenvalues --   -0.62854  -0.62008  -0.61683  -0.61447  -0.61310
  Beta  occ. eigenvalues --   -0.61166  -0.60968  -0.60948  -0.60394  -0.60276
  Beta  occ. eigenvalues --   -0.59791  -0.59728  -0.59332  -0.59203  -0.59026
  Beta  occ. eigenvalues --   -0.58111  -0.57853  -0.57706  -0.57612  -0.57587
  Beta  occ. eigenvalues --   -0.57479  -0.57430  -0.57327  -0.57157  -0.56888
  Beta  occ. eigenvalues --   -0.56455  -0.55842  -0.55246  -0.54928  -0.54766
  Beta  occ. eigenvalues --   -0.54689  -0.54545  -0.54501  -0.54237  -0.54106
  Beta  occ. eigenvalues --   -0.53740  -0.52326  -0.52167  -0.52078  -0.51947
  Beta  occ. eigenvalues --   -0.51871  -0.51766  -0.51631  -0.51569  -0.51454
  Beta  occ. eigenvalues --   -0.51377  -0.51271  -0.51037  -0.50923  -0.50648
  Beta  occ. eigenvalues --   -0.50607  -0.50478  -0.50340  -0.50210  -0.50055
  Beta  occ. eigenvalues --   -0.49992  -0.49671  -0.49633  -0.49447  -0.49328
  Beta  occ. eigenvalues --   -0.49201  -0.49088  -0.48961  -0.48727  -0.48665
  Beta  occ. eigenvalues --   -0.48239  -0.48187  -0.47761  -0.47578  -0.47385
  Beta  occ. eigenvalues --   -0.47319  -0.47228  -0.47069  -0.47023  -0.46910
  Beta  occ. eigenvalues --   -0.46686  -0.46658  -0.46477  -0.46307  -0.46006
  Beta  occ. eigenvalues --   -0.45504  -0.45437  -0.45136  -0.45095  -0.44991
  Beta  occ. eigenvalues --   -0.44929  -0.43515  -0.43476  -0.43416  -0.43238
  Beta  occ. eigenvalues --   -0.43196  -0.43158  -0.43086  -0.41706  -0.41088
  Beta  occ. eigenvalues --   -0.40355  -0.39436  -0.38434  -0.37422  -0.36687
  Beta  occ. eigenvalues --   -0.35617  -0.35546  -0.35473  -0.35440  -0.35326
  Beta  occ. eigenvalues --   -0.35297  -0.35227  -0.35205  -0.35179  -0.35132
  Beta  occ. eigenvalues --   -0.35113  -0.35029  -0.34927  -0.34405  -0.33649
  Beta  occ. eigenvalues --   -0.32627  -0.31453  -0.30235  -0.29163  -0.28247
  Beta  occ. eigenvalues --   -0.27707
  Beta virt. eigenvalues --   -0.01755  -0.01153  -0.00183   0.00908   0.02164
  Beta virt. eigenvalues --    0.03380   0.04393   0.05359   0.05568   0.05639
  Beta virt. eigenvalues --    0.05676   0.05755   0.05944   0.06130   0.06337

 Mulliken charges and spin densities:
               1          2
     1  C    0.022749   0.000000
     2  C    0.023704  -0.000000
     3  C   -0.009095   0.000000
     4  C    0.016199  -0.000000
     5  C    0.077069   0.000000
     6  F   -0.127501  -0.000000
     7  C    0.014876  -0.000000
     8  C   -0.143694   0.000000
     9  C    0.035712  -0.000000
    10  C    0.030316   0.000000
    11  C   -0.152989  -0.000000
    12  S    0.159021   0.000000
    13  C    0.068958   0.000000
    14  C    0.007186   0.000000
    15  C    0.000601  -0.000000
    16  C    0.027445   0.000000
    17  C    0.085909   0.000000
    18  F   -0.125743  -0.000000
    19  C    0.002809  -0.000000
    20  C   -0.143961  -0.000000
    21  C    0.031131   0.000000
    22  C    0.033099  -0.000000
    23  C   -0.152106   0.000000
    24  S    0.158120   0.000000
    25  C    0.066144  -0.000000
    26  C    0.009054   0.000000
    27  C   -0.000127  -0.000000
    28  C    0.013765   0.000000
    29  C    0.094046  -0.000000
    30  F   -0.123611   0.000000
    31  C    0.004082   0.000000
    32  C   -0.141285  -0.000000
    33  C    0.027587  -0.000000
    34  C    0.029510   0.000000
    35  C   -0.156328  -0.000000
    36  S    0.183474  -0.000000
    37  C    0.064149   0.000000
    38  C    0.008877  -0.000000
    39  C    0.000368   0.000000
    40  C    0.022356  -0.000000
    41  C    0.086563  -0.000000
    42  F   -0.126487  -0.000000
    43  C    0.003996   0.000000
    44  C   -0.141543   0.000000
    45  C    0.031272   0.000000
    46  C    0.032630  -0.000000
    47  C   -0.148516   0.000000
    48  S    0.154432   0.000000
    49  C    0.062351  -0.000000
    50  C    0.009052  -0.000000
    51  C    0.001335   0.000000
    52  C    0.013810   0.000000
    53  C    0.091484   0.000000
    54  F   -0.122947  -0.000000
    55  C    0.006114   0.000000
    56  C   -0.141863   0.000000
    57  C    0.027884  -0.000000
    58  C    0.028417   0.000000
    59  C   -0.156252  -0.000000
    60  S    0.183718   0.000000
    61  C    0.066227  -0.000000
    62  C    0.006984   0.000000
    63  C    0.000461  -0.000000
    64  C    0.028128   0.000000
    65  C    0.085017  -0.000000
    66  F   -0.126411   0.000000
    67  C    0.003293   0.000000
    68  C   -0.144552  -0.000000
    69  C    0.030633   0.000000
    70  C    0.032580  -0.000000
    71  C   -0.151825   0.000000
    72  S    0.158354   0.000000
    73  C    0.066348  -0.000000
    74  C    0.007777  -0.000000
    75  C    0.000900   0.000000
    76  C    0.017084  -0.000000
    77  C    0.095996  -0.000000
    78  F   -0.123542  -0.000000
    79  C    0.000948   0.000000
    80  C   -0.146211   0.000000
    81  C    0.000182   0.000000
    82  C    0.054963  -0.000000
    83  C   -0.137256   0.000000
    84  S    0.174044   0.000000
    85  H    0.004047   0.000000
    86  H   -0.000812   0.000000
    87  H    0.005330  -0.000000
    88  H    0.012831  -0.000000
    89  H    0.000751   0.000000
    90  H   -0.002605   0.000000
    91  H   -0.003670   0.000000
    92  H    0.006200   0.000000
    93  H    0.004920   0.000000
    94  H    0.000944   0.000000
    95  H   -0.001916   0.000000
    96  H   -0.003582  -0.000000
    97  H   -0.001465  -0.000000
    98  H    0.005257   0.000000
    99  H   -0.001868   0.000000
   100  H   -0.003605   0.000000
   101  H    0.000229   0.000000
   102  H    0.010126   0.000000
   103  H    0.003200   0.000000
   104  H    0.000824  -0.000000
   105  H   -0.002557  -0.000000
   106  H   -0.009751  -0.000000
   107  H   -0.001610  -0.000000
   108  H    0.012787   0.000000
   109  H   -0.002183  -0.000000
   110  H   -0.003916  -0.000000
   111  H   -0.000198   0.000000
   112  H    0.006795  -0.000000
   113  H    0.003154   0.000000
   114  H    0.000059   0.000000
   115  H   -0.002523  -0.000000
   116  H   -0.004545   0.000000
   117  H   -0.001477   0.000000
   118  H    0.003992   0.000000
   119  H   -0.001290   0.000000
   120  H   -0.001639  -0.000000
   121  H    0.032319   0.000000
 Sum of Mulliken charges =  -0.00000   0.00000

 Dipole moment (field-independent basis, Debye):
    X=              6.2121    Y=              0.9046    Z=              1.2690  Tot=              6.4046
 Quadrupole moment (field-independent basis, Debye-Ang):
   XX=           -464.8174   YY=           -481.7940   ZZ=           -515.8226
   XY=             17.5354   XZ=             37.3125   YZ=             -5.1762

 Normal termination of Gaussian 16 at Sun Jul 26 18:56:39 2020.
