 Gaussian 16, Revision A.03,
 Gaussian 16:  EM64L-G16RevA.03 25-Dec-2016

 ---------------------------------------------------------------
 #P uLC-wPBE/cc-pVDZ iop(3/107=0443900000, 3/108=0443900000) opt
 ---------------------------------------------------------------

 -------------
 H32 C36 N6 O6
 -------------
 Symbolic Z-matrix:
 Charge =  0 Multiplicity = 1

 SCF Done:  E(ULC-wPBE) =  -2169.38156014     A.U. after   16 cycles
 SCF Done:  E(ULC-wPBE) =  -2169.45252356     A.U. after   14 cycles
 SCF Done:  E(ULC-wPBE) =  -2169.51193951     A.U. after   16 cycles
 SCF Done:  E(ULC-wPBE) =  -2169.51601596     A.U. after   14 cycles
 SCF Done:  E(ULC-wPBE) =  -2169.51762175     A.U. after   14 cycles
 SCF Done:  E(ULC-wPBE) =  -2169.51778935     A.U. after   17 cycles
 SCF Done:  E(ULC-wPBE) =  -2169.51982588     A.U. after   15 cycles
 SCF Done:  E(ULC-wPBE) =  -2169.52029658     A.U. after   13 cycles
 SCF Done:  E(ULC-wPBE) =  -2169.52050296     A.U. after   13 cycles
 SCF Done:  E(ULC-wPBE) =  -2169.52060674     A.U. after   12 cycles
 SCF Done:  E(ULC-wPBE) =  -2169.52063713     A.U. after   11 cycles
 SCF Done:  E(ULC-wPBE) =  -2169.52064781     A.U. after   11 cycles
 SCF Done:  E(ULC-wPBE) =  -2169.52065215     A.U. after   11 cycles
 SCF Done:  E(ULC-wPBE) =  -2169.52065446     A.U. after   10 cycles
 SCF Done:  E(ULC-wPBE) =  -2169.52065523     A.U. after    8 cycles
 SCF Done:  E(ULC-wPBE) =  -2169.52065538     A.U. after    8 cycles
 SCF Done:  E(ULC-wPBE) =  -2169.52065552     A.U. after    7 cycles
 SCF Done:  E(ULC-wPBE) =  -2169.52065558     A.U. after    7 cycles
 SCF Done:  E(ULC-wPBE) =  -2169.52065558     A.U. after    6 cycles
 SCF Done:  E(ULC-wPBE) =  -2169.52065559     A.U. after    5 cycles
 Optimization completed.
    -- Stationary point found.

                         Standard orientation:
 ---------------------------------------------------------------------
 Center     Atomic      Atomic             Coordinates (Angstroms)
 Number     Number       Type             X           Y           Z
 ---------------------------------------------------------------------
      1          6           0       11.905055    0.386275   -0.368009
      2          6           0       11.329283   -0.877826   -0.409349
      3          6           0        9.949769   -0.973457   -0.350886
      4          8           0        9.246812   -2.123821   -0.402188
      5          6           0        9.962824   -3.327506   -0.493069
      6          6           0        9.202018    0.210175   -0.248179
      7          7           0        9.758574    1.405835   -0.217420
      8          6           0       11.086247    1.492665   -0.275243
      9          6           0        7.710551    0.154937   -0.207288
     10          7           0        7.059478    0.679981   -1.226931
     11          6           0        5.730310    0.673619   -1.211973
     12          6           0        4.978828    0.149360   -0.171794
     13          6           0        5.666357   -0.402843    0.909506
     14          6           0        7.048871   -0.403845    0.897015
     15          8           0        7.830677   -0.879835    1.887336
     16          6           0        7.202454   -1.474539    2.993206
     17          6           0        3.499988    0.171583   -0.204280
     18          6           0        2.806872    1.295333   -0.654647
     19          6           0        1.424380    1.271713   -0.668624
     20          8           0        0.638630    2.280963   -1.096024
     21          6           0        1.263526    3.452091   -1.554248
     22          6           0        0.768517    0.116908   -0.215047
     23          7           0        1.425295   -0.949491    0.198823
     24          6           0        2.754041   -0.924066    0.202341
     25          6           0       -0.721828    0.039261   -0.220131
     26          7           0       -1.275985   -0.852901   -1.017588
     27          6           0       -2.600248   -0.969662   -1.031551
     28          6           0       -3.442655   -0.201341   -0.242894
     29          6           0       -2.857609    0.739228    0.605674
     30          6           0       -1.480874    0.864025    0.624325
     31          8           0       -0.790411    1.707361    1.419658
     32          6           0       -1.517953    2.559289    2.264358
     33          6           0       -4.911075   -0.373472   -0.297260
     34          6           0       -5.765546    0.729084   -0.338072
     35          6           0       -7.131017    0.519908   -0.389663
     36          8           0       -8.061870    1.493974   -0.462144
     37          6           0       -7.621564    2.826135   -0.459434
     38          6           0       -7.607086   -0.800241   -0.395601
     39          7           0       -6.798321   -1.840946   -0.360744
     40          6           0       -5.485641   -1.634821   -0.310457
     41          6           0       -9.071836   -1.076592   -0.484752
     42          7           0       -9.502605   -1.672533   -1.579949
     43          6           0      -10.799597   -1.955581   -1.684195
     44          6           0      -11.712838   -1.654259   -0.695026
     45          6           0      -11.269141   -1.033384    0.466324
     46          6           0       -9.921729   -0.738211    0.579781
     47          8           0       -9.340275   -0.158137    1.651063
     48          6           0      -10.163765    0.201791    2.728700
     49          1           0       12.987113    0.500897   -0.412376
     50          1           0       11.956966   -1.762402   -0.491592
     51          1           0        9.218116   -4.128036   -0.517997
     52          1           0       10.565362   -3.372418   -1.412535
     53          1           0       10.619366   -3.474546    0.377590
     54          1           0       11.505952    2.499685   -0.244476
     55          1           0        5.237663    1.093597   -2.091235
     56          1           0        5.107898   -0.798672    1.754927
     57          1           0        8.003058   -1.808908    3.658937
     58          1           0        6.596318   -2.342833    2.694990
     59          1           0        6.566302   -0.757281    3.532743
     60          1           0        3.361092    2.175773   -0.972304
     61          1           0        1.858246    3.930245   -0.761834
     62          1           0        1.909915    3.253410   -2.421846
     63          1           0        0.461210    4.130514   -1.857555
     64          1           0        3.251771   -1.837917    0.533017
     65          1           0       -3.013551   -1.704495   -1.724763
     66          1           0       -3.488061    1.337606    1.260286
     67          1           0       -2.176632    3.230081    1.692481
     68          1           0       -0.781217    3.159572    2.805625
     69          1           0       -2.120285    1.993559    2.990753
     70          1           0       -5.346421    1.733053   -0.358899
     71          1           0       -7.077718    3.070975    0.465387
     72          1           0       -6.978508    3.042831   -1.325439
     73          1           0       -8.519349    3.447730   -0.520082
     74          1           0       -4.857858   -2.526275   -0.259628
     75          1           0      -11.113815   -2.446330   -2.606990
     76          1           0      -12.765802   -1.902554   -0.819752
     77          1           0      -11.971908   -0.795621    1.261826
     78          1           0      -10.924832    0.937772    2.428832
     79          1           0       -9.509144    0.651662    3.480576
     80          1           0      -10.662142   -0.674724    3.169044
 ---------------------------------------------------------------------

 The electronic state is 1-A.
 Alpha  occ. eigenvalues --  -19.04052 -19.03999 -19.03903 -19.03861 -19.03828
 Alpha  occ. eigenvalues --  -19.03733 -14.23159 -14.23098 -14.23087 -14.23052
 Alpha  occ. eigenvalues --  -14.22885 -14.22883 -10.21149 -10.21091 -10.21069
 Alpha  occ. eigenvalues --  -10.20994 -10.20912 -10.20855 -10.20451 -10.20404
 Alpha  occ. eigenvalues --  -10.20279 -10.20156 -10.20106 -10.20088 -10.17743
 Alpha  occ. eigenvalues --  -10.17715 -10.17676 -10.17636 -10.17608 -10.17572
 Alpha  occ. eigenvalues --  -10.16567 -10.16519 -10.16458 -10.16431 -10.16298
 Alpha  occ. eigenvalues --  -10.16286 -10.16239 -10.16235 -10.16198 -10.16195
 Alpha  occ. eigenvalues --  -10.15871 -10.15834 -10.15721 -10.15706 -10.15675
 Alpha  occ. eigenvalues --  -10.15663 -10.15054 -10.15030  -1.24231  -1.24171
 Alpha  occ. eigenvalues --   -1.24027  -1.23602  -1.23561  -1.23420  -1.12268
 Alpha  occ. eigenvalues --   -1.12019  -1.11919  -1.10325  -1.09946  -1.09798
 Alpha  occ. eigenvalues --   -1.00487  -0.99817  -0.96664  -0.96609  -0.96119
 Alpha  occ. eigenvalues --   -0.95866  -0.95818  -0.95408  -0.94905  -0.92931
 Alpha  occ. eigenvalues --   -0.91474  -0.90238  -0.87517  -0.87149  -0.86929
 Alpha  occ. eigenvalues --   -0.86668  -0.86238  -0.85628  -0.83066  -0.81003
 Alpha  occ. eigenvalues --   -0.79268  -0.77793  -0.76826  -0.76507  -0.75936
 Alpha  occ. eigenvalues --   -0.75858  -0.75535  -0.75076  -0.74193  -0.73648
 Alpha  occ. eigenvalues --   -0.69806  -0.69401  -0.68683  -0.68130  -0.67156
 Alpha  occ. eigenvalues --   -0.66618  -0.66477  -0.65308  -0.64950  -0.64820
 Alpha  occ. eigenvalues --   -0.64679  -0.64230  -0.64015  -0.63811  -0.63723
 Alpha  occ. eigenvalues --   -0.62276  -0.62224  -0.62063  -0.61790  -0.61552
 Alpha  occ. eigenvalues --   -0.61436  -0.61172  -0.60535  -0.59461  -0.57234
 Alpha  occ. eigenvalues --   -0.56995  -0.56990  -0.56910  -0.56697  -0.56600
 Alpha  occ. eigenvalues --   -0.56535  -0.55959  -0.55643  -0.55285  -0.54914
 Alpha  occ. eigenvalues --   -0.54734  -0.54467  -0.54204  -0.54043  -0.53970
 Alpha  occ. eigenvalues --   -0.53253  -0.53003  -0.52803  -0.52247  -0.51489
 Alpha  occ. eigenvalues --   -0.51068  -0.50409  -0.50139  -0.49920  -0.47737
 Alpha  occ. eigenvalues --   -0.47629  -0.47334  -0.47263  -0.47067  -0.46820
 Alpha  occ. eigenvalues --   -0.46468  -0.46314  -0.46075  -0.45931  -0.45822
 Alpha  occ. eigenvalues --   -0.45551  -0.42135  -0.41494  -0.39365  -0.39311
 Alpha  occ. eigenvalues --   -0.38546  -0.38074  -0.37813  -0.37352  -0.37334
 Alpha  occ. eigenvalues --   -0.36792  -0.36435  -0.36127  -0.34257  -0.33997
 Alpha  occ. eigenvalues --   -0.33475  -0.32937  -0.31923  -0.30998
 Alpha virt. eigenvalues --    0.03081   0.04542   0.06666   0.07214   0.07485
 Alpha virt. eigenvalues --    0.07575   0.08405   0.08659   0.09396   0.09480
 Alpha virt. eigenvalues --    0.11232   0.12415   0.14348   0.15393   0.15533

  Beta  occ. eigenvalues --  -19.04052 -19.03999 -19.03903 -19.03861 -19.03828
  Beta  occ. eigenvalues --  -19.03733 -14.23159 -14.23098 -14.23087 -14.23052
  Beta  occ. eigenvalues --  -14.22885 -14.22883 -10.21149 -10.21091 -10.21069
  Beta  occ. eigenvalues --  -10.20994 -10.20912 -10.20855 -10.20451 -10.20404
  Beta  occ. eigenvalues --  -10.20279 -10.20156 -10.20106 -10.20088 -10.17743
  Beta  occ. eigenvalues --  -10.17715 -10.17676 -10.17636 -10.17608 -10.17572
  Beta  occ. eigenvalues --  -10.16567 -10.16519 -10.16458 -10.16431 -10.16298
  Beta  occ. eigenvalues --  -10.16286 -10.16239 -10.16235 -10.16198 -10.16195
  Beta  occ. eigenvalues --  -10.15871 -10.15834 -10.15721 -10.15706 -10.15675
  Beta  occ. eigenvalues --  -10.15663 -10.15054 -10.15030  -1.24231  -1.24171
  Beta  occ. eigenvalues --   -1.24027  -1.23602  -1.23561  -1.23420  -1.12268
  Beta  occ. eigenvalues --   -1.12019  -1.11919  -1.10325  -1.09946  -1.09798
  Beta  occ. eigenvalues --   -1.00487  -0.99817  -0.96664  -0.96609  -0.96119
  Beta  occ. eigenvalues --   -0.95866  -0.95818  -0.95408  -0.94905  -0.92931
  Beta  occ. eigenvalues --   -0.91474  -0.90238  -0.87517  -0.87149  -0.86929
  Beta  occ. eigenvalues --   -0.86668  -0.86238  -0.85628  -0.83066  -0.81003
  Beta  occ. eigenvalues --   -0.79268  -0.77793  -0.76826  -0.76507  -0.75936
  Beta  occ. eigenvalues --   -0.75858  -0.75535  -0.75076  -0.74193  -0.73648
  Beta  occ. eigenvalues --   -0.69806  -0.69401  -0.68683  -0.68130  -0.67156
  Beta  occ. eigenvalues --   -0.66618  -0.66477  -0.65308  -0.64950  -0.64820
  Beta  occ. eigenvalues --   -0.64679  -0.64230  -0.64015  -0.63811  -0.63723
  Beta  occ. eigenvalues --   -0.62276  -0.62224  -0.62063  -0.61790  -0.61552
  Beta  occ. eigenvalues --   -0.61436  -0.61172  -0.60535  -0.59461  -0.57234
  Beta  occ. eigenvalues --   -0.56995  -0.56990  -0.56910  -0.56697  -0.56600
  Beta  occ. eigenvalues --   -0.56535  -0.55959  -0.55643  -0.55285  -0.54914
  Beta  occ. eigenvalues --   -0.54734  -0.54467  -0.54204  -0.54043  -0.53970
  Beta  occ. eigenvalues --   -0.53253  -0.53003  -0.52803  -0.52247  -0.51489
  Beta  occ. eigenvalues --   -0.51068  -0.50409  -0.50139  -0.49920  -0.47737
  Beta  occ. eigenvalues --   -0.47629  -0.47334  -0.47263  -0.47067  -0.46820
  Beta  occ. eigenvalues --   -0.46468  -0.46314  -0.46075  -0.45931  -0.45822
  Beta  occ. eigenvalues --   -0.45551  -0.42135  -0.41494  -0.39365  -0.39311
  Beta  occ. eigenvalues --   -0.38546  -0.38074  -0.37813  -0.37352  -0.37334
  Beta  occ. eigenvalues --   -0.36792  -0.36435  -0.36127  -0.34257  -0.33997
  Beta  occ. eigenvalues --   -0.33475  -0.32937  -0.31923  -0.30998
  Beta virt. eigenvalues --    0.03081   0.04542   0.06666   0.07214   0.07485
  Beta virt. eigenvalues --    0.07575   0.08405   0.08659   0.09396   0.09480
  Beta virt. eigenvalues --    0.11232   0.12415   0.14348   0.15393   0.15533

 Mulliken charges and spin densities:
               1          2
     1  C   -0.058957  -0.000000
     2  C   -0.016767  -0.000000
     3  C    0.132190  -0.000000
     4  O   -0.251661  -0.000000
     5  C    0.034830  -0.000000
     6  C    0.044060   0.000000
     7  N   -0.175702  -0.000000
     8  C    0.066376   0.000000
     9  C    0.052943  -0.000000
    10  N   -0.169910   0.000000
    11  C    0.069506  -0.000000
    12  C   -0.082460   0.000000
    13  C    0.005415  -0.000000
    14  C    0.139918   0.000000
    15  O   -0.252637  -0.000000
    16  C    0.036026  -0.000000
    17  C   -0.083311   0.000000
    18  C    0.005926   0.000000
    19  C    0.140911  -0.000000
    20  O   -0.253611   0.000000
    21  C    0.035880   0.000000
    22  C    0.047663   0.000000
    23  N   -0.169059  -0.000000
    24  C    0.069302  -0.000000
    25  C    0.049507  -0.000000
    26  N   -0.168541   0.000000
    27  C    0.076060  -0.000000
    28  C   -0.086685   0.000000
    29  C    0.004758   0.000000
    30  C    0.138735   0.000000
    31  O   -0.252339  -0.000000
    32  C    0.037397   0.000000
    33  C   -0.087034   0.000000
    34  C    0.004571  -0.000000
    35  C    0.139347   0.000000
    36  O   -0.252130  -0.000000
    37  C    0.037475   0.000000
    38  C    0.053551  -0.000000
    39  N   -0.169211   0.000000
    40  C    0.075845  -0.000000
    41  C    0.044448   0.000000
    42  N   -0.173972  -0.000000
    43  C    0.067377   0.000000
    44  C   -0.059151  -0.000000
    45  C   -0.016956   0.000000
    46  C    0.131324  -0.000000
    47  O   -0.252737   0.000000
    48  C    0.035398   0.000000
    49  H    0.015281   0.000000
    50  H    0.019524   0.000000
    51  H    0.067423  -0.000000
    52  H    0.053373   0.000000
    53  H    0.050438   0.000000
    54  H    0.018797  -0.000000
    55  H    0.014561   0.000000
    56  H    0.015301  -0.000000
    57  H    0.065835   0.000000
    58  H    0.052799   0.000000
    59  H    0.054782   0.000000
    60  H    0.017150   0.000000
    61  H    0.053700  -0.000000
    62  H    0.055748  -0.000000
    63  H    0.064865   0.000000
    64  H    0.014062   0.000000
    65  H    0.021558   0.000000
    66  H    0.009400  -0.000000
    67  H    0.047347   0.000000
    68  H    0.066731  -0.000000
    69  H    0.054812  -0.000000
    70  H    0.009484   0.000000
    71  H    0.046627  -0.000000
    72  H    0.055544  -0.000000
    73  H    0.066435   0.000000
    74  H    0.020926   0.000000
    75  H    0.020074  -0.000000
    76  H    0.015488   0.000000
    77  H    0.019139   0.000000
    78  H    0.050433   0.000000
    79  H    0.064820   0.000000
    80  H    0.053636  -0.000000
 Sum of Mulliken charges =  -0.00000   0.00000

 Dipole moment (field-independent basis, Debye):
    X=             -0.8925    Y=              4.2822    Z=              5.7640  Tot=              7.2359
 Quadrupole moment (field-independent basis, Debye-Ang):
   XX=           -194.7985   YY=           -249.1060   ZZ=           -261.1857
   XY=            -63.7996   XZ=            -14.9673   YZ=             -3.1988

 Normal termination of Gaussian 16 at Thu Jul 23 13:33:38 2020.
