 Gaussian 16, Revision A.03,
 Gaussian 16:  EM64L-G16RevA.03 25-Dec-2016

 ---------------------------------------------------------------
 #P uLC-wPBE/cc-pVDZ iop(3/107=0277900000, 3/108=0277900000) opt
 ---------------------------------------------------------------

 ----------------
 H14 C27 S3 N3 F3
 ----------------
 Symbolic Z-matrix:
 Charge =  0 Multiplicity = 1

 SCF Done:  E(ULC-wPBE) =  -2694.08558123     A.U. after   16 cycles
 SCF Done:  E(ULC-wPBE) =  -2694.14180248     A.U. after   14 cycles
 SCF Done:  E(ULC-wPBE) =  -2694.17574674     A.U. after   15 cycles
 SCF Done:  E(ULC-wPBE) =  -2694.17913228     A.U. after   14 cycles
 SCF Done:  E(ULC-wPBE) =  -2694.18059579     A.U. after   15 cycles
 SCF Done:  E(ULC-wPBE) =  -2694.18083618     A.U. after   14 cycles
 SCF Done:  E(ULC-wPBE) =  -2694.18110928     A.U. after   13 cycles
 SCF Done:  E(ULC-wPBE) =  -2694.18115434     A.U. after   12 cycles
 SCF Done:  E(ULC-wPBE) =  -2694.18117611     A.U. after   11 cycles
 SCF Done:  E(ULC-wPBE) =  -2694.18118090     A.U. after   11 cycles
 SCF Done:  E(ULC-wPBE) =  -2694.18118247     A.U. after   10 cycles
 SCF Done:  E(ULC-wPBE) =  -2694.18118317     A.U. after    8 cycles
 SCF Done:  E(ULC-wPBE) =  -2694.18118331     A.U. after    8 cycles
 SCF Done:  E(ULC-wPBE) =  -2694.18118357     A.U. after    9 cycles
 SCF Done:  E(ULC-wPBE) =  -2694.18118364     A.U. after    7 cycles
 Optimization completed.
    -- Stationary point found.

                         Standard orientation:
 ---------------------------------------------------------------------
 Center     Atomic      Atomic             Coordinates (Angstroms)
 Number     Number       Type             X           Y           Z
 ---------------------------------------------------------------------
      1          6           0       10.741152    2.132190   -0.755475
      2          6           0        9.434521    2.558534   -0.995526
      3          7           0        8.357992    1.822147   -0.719438
      4          6           0        8.515693    0.601185   -0.181802
      5          6           0        9.802160    0.111092    0.084750
      6          9           0        9.965335   -1.114854    0.624357
      7          6           0       10.926844    0.869550   -0.198292
      8          6           0        7.283440   -0.151587    0.092760
      9          6           0        7.083535   -1.402775    0.634922
     10          6           0        5.709337   -1.749724    0.723123
     11          6           0        4.873460   -0.762695    0.248430
     12         16           0        5.776327    0.603029   -0.319053
     13          6           0        3.403218   -0.781100    0.189375
     14          6           0        2.699860   -1.987164    0.023501
     15          7           0        1.375110   -2.084073   -0.019002
     16          6           0        0.626736   -0.972698    0.087169
     17          6           0        1.255028    0.269985    0.237081
     18          9           0        0.507748    1.389533    0.341023
     19          6           0        2.632674    0.382064    0.294880
     20          6           0       -0.832500   -1.160294    0.033772
     21          6           0       -1.462346   -2.376476   -0.114583
     22          6           0       -2.875862   -2.273069   -0.133647
     23          6           0       -3.322725   -0.976314    0.000701
     24         16           0       -1.993319    0.125560    0.143223
     25          6           0       -4.713043   -0.495329    0.024199
     26          6           0       -5.722216   -1.164891   -0.687573
     27          7           0       -7.000112   -0.798391   -0.694267
     28          6           0       -7.388154    0.284481    0.000442
     29          6           0       -6.435469    1.016655    0.723022
     30          9           0       -6.803668    2.108491    1.425279
     31          6           0       -5.105360    0.637259    0.747657
     32          6           0       -8.815558    0.624928   -0.055050
     33          6           0       -9.525594    1.649383    0.534190
     34          6           0      -10.912456    1.610515    0.215252
     35          6           0      -11.228011    0.560440   -0.607719
     36         16           0       -9.854679   -0.391920   -1.005971
     37          1           0       11.594312    2.773185   -0.998852
     38          1           0        9.239861    3.546255   -1.433756
     39          1           0       11.918294    0.460219    0.020974
     40          1           0        7.897865   -2.048021    0.966495
     41          1           0        5.347712   -2.688769    1.151197
     42          1           0        3.252542   -2.928324   -0.096145
     43          1           0        3.082209    1.370794    0.435504
     44          1           0       -0.893217   -3.304839   -0.197791
     45          1           0       -3.548309   -3.131338   -0.215876
     46          1           0       -5.472052   -2.042118   -1.298464
     47          1           0       -4.397550    1.223075    1.343917
     48          1           0       -9.066144    2.403720    1.174237
     49          1           0      -11.644933    2.334267    0.583059
     50          1           0      -12.209670    0.294029   -1.006042
 ---------------------------------------------------------------------

 The electronic state is 1-A.
 Alpha  occ. eigenvalues --  -88.26254 -88.26220 -88.24889 -24.46216 -24.45996
 Alpha  occ. eigenvalues --  -24.45382 -14.17153 -14.16808 -14.16391 -10.15931
 Alpha  occ. eigenvalues --  -10.15570 -10.15127 -10.12330 -10.11935 -10.11390
 Alpha  occ. eigenvalues --  -10.10445 -10.10206 -10.10155 -10.09965 -10.09906
 Alpha  occ. eigenvalues --  -10.09770 -10.09711 -10.09627 -10.09438 -10.09292
 Alpha  occ. eigenvalues --  -10.09025 -10.08625 -10.08599 -10.08583 -10.07870
 Alpha  occ. eigenvalues --  -10.07058 -10.06976 -10.06665 -10.06372 -10.05806
 Alpha  occ. eigenvalues --  -10.05600  -7.86737  -7.86683  -7.85362  -5.88624
 Alpha  occ. eigenvalues --   -5.88569  -5.88120  -5.88068  -5.87736  -5.87689
 Alpha  occ. eigenvalues --   -5.87238  -5.86735  -5.86388  -1.30256  -1.30031
 Alpha  occ. eigenvalues --   -1.29426  -1.05027  -1.04751  -1.04332  -0.98754
 Alpha  occ. eigenvalues --   -0.98346  -0.96809  -0.92335  -0.91449  -0.91135
 Alpha  occ. eigenvalues --   -0.88860  -0.88219  -0.87456  -0.84144  -0.83675
 Alpha  occ. eigenvalues --   -0.83478  -0.82293  -0.81856  -0.79475  -0.76272
 Alpha  occ. eigenvalues --   -0.74672  -0.74211  -0.73971  -0.73485  -0.72483
 Alpha  occ. eigenvalues --   -0.67450  -0.67126  -0.66510  -0.65953  -0.65608
 Alpha  occ. eigenvalues --   -0.64682  -0.63825  -0.62495  -0.62399  -0.61690
 Alpha  occ. eigenvalues --   -0.61301  -0.60749  -0.60432  -0.59576  -0.59319
 Alpha  occ. eigenvalues --   -0.58221  -0.57605  -0.57389  -0.56894  -0.56680
 Alpha  occ. eigenvalues --   -0.54949  -0.53013  -0.52008  -0.51721  -0.51419
 Alpha  occ. eigenvalues --   -0.51206  -0.51121  -0.50976  -0.50719  -0.50371
 Alpha  occ. eigenvalues --   -0.50216  -0.50029  -0.49472  -0.48913  -0.48482
 Alpha  occ. eigenvalues --   -0.47967  -0.47897  -0.47559  -0.47200  -0.46517
 Alpha  occ. eigenvalues --   -0.46184  -0.45898  -0.45177  -0.43855  -0.43121
 Alpha  occ. eigenvalues --   -0.42613  -0.41978  -0.40298  -0.39012  -0.37266
 Alpha  occ. eigenvalues --   -0.36827  -0.36387  -0.36020  -0.35637  -0.35094
 Alpha  occ. eigenvalues --   -0.34702  -0.34561  -0.33375  -0.32473  -0.30097
 Alpha  occ. eigenvalues --   -0.27909
 Alpha virt. eigenvalues --   -0.02357  -0.00107   0.02132   0.03784   0.03880
 Alpha virt. eigenvalues --    0.04400   0.06473   0.08827   0.10449   0.11109
 Alpha virt. eigenvalues --    0.11354   0.12741   0.12975   0.13091   0.14059

  Beta  occ. eigenvalues --  -88.26254 -88.26220 -88.24889 -24.46216 -24.45996
  Beta  occ. eigenvalues --  -24.45382 -14.17153 -14.16808 -14.16391 -10.15931
  Beta  occ. eigenvalues --  -10.15570 -10.15127 -10.12330 -10.11935 -10.11390
  Beta  occ. eigenvalues --  -10.10445 -10.10206 -10.10155 -10.09965 -10.09906
  Beta  occ. eigenvalues --  -10.09770 -10.09711 -10.09627 -10.09438 -10.09292
  Beta  occ. eigenvalues --  -10.09025 -10.08625 -10.08599 -10.08583 -10.07870
  Beta  occ. eigenvalues --  -10.07058 -10.06976 -10.06665 -10.06372 -10.05806
  Beta  occ. eigenvalues --  -10.05600  -7.86737  -7.86683  -7.85362  -5.88624
  Beta  occ. eigenvalues --   -5.88569  -5.88120  -5.88068  -5.87736  -5.87689
  Beta  occ. eigenvalues --   -5.87238  -5.86735  -5.86388  -1.30256  -1.30031
  Beta  occ. eigenvalues --   -1.29426  -1.05027  -1.04751  -1.04332  -0.98754
  Beta  occ. eigenvalues --   -0.98346  -0.96809  -0.92335  -0.91449  -0.91135
  Beta  occ. eigenvalues --   -0.88860  -0.88219  -0.87456  -0.84144  -0.83675
  Beta  occ. eigenvalues --   -0.83478  -0.82293  -0.81856  -0.79475  -0.76272
  Beta  occ. eigenvalues --   -0.74672  -0.74211  -0.73971  -0.73485  -0.72483
  Beta  occ. eigenvalues --   -0.67450  -0.67126  -0.66510  -0.65953  -0.65608
  Beta  occ. eigenvalues --   -0.64682  -0.63825  -0.62495  -0.62399  -0.61690
  Beta  occ. eigenvalues --   -0.61301  -0.60749  -0.60432  -0.59576  -0.59319
  Beta  occ. eigenvalues --   -0.58221  -0.57605  -0.57389  -0.56894  -0.56680
  Beta  occ. eigenvalues --   -0.54949  -0.53013  -0.52008  -0.51721  -0.51419
  Beta  occ. eigenvalues --   -0.51206  -0.51121  -0.50976  -0.50719  -0.50371
  Beta  occ. eigenvalues --   -0.50216  -0.50029  -0.49472  -0.48913  -0.48482
  Beta  occ. eigenvalues --   -0.47967  -0.47897  -0.47559  -0.47200  -0.46517
  Beta  occ. eigenvalues --   -0.46184  -0.45898  -0.45177  -0.43855  -0.43121
  Beta  occ. eigenvalues --   -0.42613  -0.41978  -0.40298  -0.39012  -0.37266
  Beta  occ. eigenvalues --   -0.36827  -0.36387  -0.36020  -0.35637  -0.35094
  Beta  occ. eigenvalues --   -0.34702  -0.34561  -0.33375  -0.32473  -0.30097
  Beta  occ. eigenvalues --   -0.27909
  Beta virt. eigenvalues --   -0.02357  -0.00107   0.02132   0.03784   0.03880
  Beta virt. eigenvalues --    0.04400   0.06473   0.08827   0.10449   0.11109
  Beta virt. eigenvalues --    0.11354   0.12741   0.12975   0.13091   0.14059

 Mulliken charges and spin densities:
               1          2
     1  C   -0.030659  -0.000000
     2  C    0.089494   0.000000
     3  N   -0.209065   0.000000
     4  C    0.108010   0.000000
     5  C    0.096787   0.000000
     6  F   -0.123112  -0.000000
     7  C    0.066608   0.000000
     8  C   -0.146127  -0.000000
     9  C    0.008863   0.000000
    10  C    0.037228  -0.000000
    11  C   -0.160761   0.000000
    12  S    0.204579   0.000000
    13  C   -0.010378   0.000000
    14  C    0.089044  -0.000000
    15  N   -0.191854  -0.000000
    16  C    0.073537  -0.000000
    17  C    0.105973   0.000000
    18  F   -0.120960  -0.000000
    19  C    0.070324  -0.000000
    20  C   -0.162563  -0.000000
    21  C    0.076587   0.000000
    22  C    0.036168  -0.000000
    23  C   -0.161162   0.000000
    24  S    0.168345  -0.000000
    25  C   -0.006599   0.000000
    26  C    0.089967  -0.000000
    27  N   -0.206367   0.000000
    28  C    0.120472   0.000000
    29  C    0.104589  -0.000000
    30  F   -0.122800   0.000000
    31  C    0.067580   0.000000
    32  C   -0.155502   0.000000
    33  C   -0.022911  -0.000000
    34  C    0.066123   0.000000
    35  C   -0.135743   0.000000
    36  S    0.195624  -0.000000
    37  H    0.007695  -0.000000
    38  H    0.016487  -0.000000
    39  H    0.019165   0.000000
    40  H   -0.003016   0.000000
    41  H   -0.005702   0.000000
    42  H    0.008042   0.000000
    43  H    0.015681   0.000000
    44  H   -0.002143   0.000000
    45  H   -0.004155   0.000000
    46  H    0.009449  -0.000000
    47  H    0.013253   0.000000
    48  H   -0.003884  -0.000000
    49  H   -0.006386   0.000000
    50  H    0.026173  -0.000000
 Sum of Mulliken charges =  -0.00000  -0.00000

 Dipole moment (field-independent basis, Debye):
    X=              5.5497    Y=              0.6383    Z=              0.6526  Tot=              5.6242
 Quadrupole moment (field-independent basis, Debye-Ang):
   XX=           -161.6316   YY=           -211.8447   ZZ=           -226.1545
   XY=              4.3840   XZ=             -3.8633   YZ=             -0.2914

 Normal termination of Gaussian 16 at Fri Jul 24 17:30:00 2020.
