 Gaussian 16, Revision A.03,
 Gaussian 16:  EM64L-G16RevA.03 25-Dec-2016

 ---------------------------------------------------------------
 #P uLC-wPBE/cc-pVDZ iop(3/107=0294100000, 3/108=0294100000) opt
 ---------------------------------------------------------------

 --------------
 H7 C9 S2 O1 F1
 --------------
 Symbolic Z-matrix:
 Charge =  0 Multiplicity = 1

 SCF Done:  E(ULC-wPBE) =  -1317.92480913     A.U. after   16 cycles
 SCF Done:  E(ULC-wPBE) =  -1317.95456934     A.U. after   14 cycles
 SCF Done:  E(ULC-wPBE) =  -1317.96027036     A.U. after   14 cycles
 SCF Done:  E(ULC-wPBE) =  -1317.96063947     A.U. after   13 cycles
 SCF Done:  E(ULC-wPBE) =  -1317.96089882     A.U. after   13 cycles
 SCF Done:  E(ULC-wPBE) =  -1317.96122259     A.U. after   13 cycles
 SCF Done:  E(ULC-wPBE) =  -1317.96167248     A.U. after   14 cycles
 SCF Done:  E(ULC-wPBE) =  -1317.96219857     A.U. after   13 cycles
 SCF Done:  E(ULC-wPBE) =  -1317.96326792     A.U. after   14 cycles
 SCF Done:  E(ULC-wPBE) =  -1317.96336270     A.U. after   13 cycles
 SCF Done:  E(ULC-wPBE) =  -1317.96339075     A.U. after   12 cycles
 SCF Done:  E(ULC-wPBE) =  -1317.96340065     A.U. after   11 cycles
 SCF Done:  E(ULC-wPBE) =  -1317.96340839     A.U. after   10 cycles
 SCF Done:  E(ULC-wPBE) =  -1317.96341135     A.U. after   10 cycles
 SCF Done:  E(ULC-wPBE) =  -1317.96341484     A.U. after   11 cycles
 SCF Done:  E(ULC-wPBE) =  -1317.96341540     A.U. after    9 cycles
 Optimization completed.
    -- Stationary point found.

                         Standard orientation:
 ---------------------------------------------------------------------
 Center     Atomic      Atomic             Coordinates (Angstroms)
 Number     Number       Type             X           Y           Z
 ---------------------------------------------------------------------
      1          6           0        3.092031    1.209898    0.000146
      2          6           0        3.272003   -0.144665   -0.000006
      3          6           0        2.022514   -0.815566   -0.000127
      4          9           0        1.932636   -2.161113   -0.000250
      5          6           0        0.910964   -0.006679   -0.000066
      6         16           0        1.429293    1.655062    0.000115
      7          6           0       -0.487742   -0.411030   -0.000089
      8          6           0       -1.602446    0.407282    0.000047
      9          8           0       -1.443020    1.757174    0.000078
     10          6           0       -2.619171    2.545035   -0.000271
     11          6           0       -2.837281   -0.310469    0.000098
     12          6           0       -2.634018   -1.663383    0.000155
     13         16           0       -0.971560   -2.080811    0.000067
     14          1           0        3.859675    1.985407    0.000094
     15          1           0        4.235476   -0.657716    0.000159
     16          1           0       -2.286474    3.593379   -0.000467
     17          1           0       -3.231616    2.359748   -0.902927
     18          1           0       -3.231862    2.360205    0.902311
     19          1           0       -3.827186    0.148921    0.000113
     20          1           0       -3.392436   -2.447860    0.000114
 ---------------------------------------------------------------------

 The electronic state is 1-A.
 Alpha  occ. eigenvalues --  -88.26301 -88.26220 -24.44757 -18.96671 -10.13814
 Alpha  occ. eigenvalues --  -10.12469 -10.12328 -10.10099 -10.09559 -10.09337
 Alpha  occ. eigenvalues --  -10.09138 -10.07197 -10.07023  -7.86770  -7.86727
 Alpha  occ. eigenvalues --   -5.88643  -5.88590  -5.88127  -5.88077  -5.87698
 Alpha  occ. eigenvalues --   -5.87662  -1.28694  -1.15648  -0.99273  -0.97500
 Alpha  occ. eigenvalues --   -0.86973  -0.84752  -0.83005  -0.81072  -0.77739
 Alpha  occ. eigenvalues --   -0.69480  -0.68479  -0.65751  -0.64776  -0.63215
 Alpha  occ. eigenvalues --   -0.57761  -0.57201  -0.56007  -0.55505  -0.53916
 Alpha  occ. eigenvalues --   -0.53616  -0.52942  -0.49995  -0.49804  -0.47185
 Alpha  occ. eigenvalues --   -0.46829  -0.45808  -0.44971  -0.42499  -0.42227
 Alpha  occ. eigenvalues --   -0.41305  -0.37194  -0.33227  -0.32376  -0.27284
 Alpha virt. eigenvalues --    0.02933   0.08793   0.11568   0.12201   0.14324
 Alpha virt. eigenvalues --    0.14409   0.15715   0.16131   0.17330   0.18457
 Alpha virt. eigenvalues --    0.20043   0.20504   0.21568   0.22440   0.22786

  Beta  occ. eigenvalues --  -88.26301 -88.26220 -24.44757 -18.96671 -10.13814
  Beta  occ. eigenvalues --  -10.12469 -10.12328 -10.10099 -10.09559 -10.09337
  Beta  occ. eigenvalues --  -10.09138 -10.07197 -10.07023  -7.86770  -7.86727
  Beta  occ. eigenvalues --   -5.88643  -5.88590  -5.88127  -5.88077  -5.87698
  Beta  occ. eigenvalues --   -5.87662  -1.28694  -1.15648  -0.99273  -0.97500
  Beta  occ. eigenvalues --   -0.86973  -0.84752  -0.83005  -0.81072  -0.77739
  Beta  occ. eigenvalues --   -0.69480  -0.68479  -0.65751  -0.64776  -0.63215
  Beta  occ. eigenvalues --   -0.57761  -0.57201  -0.56007  -0.55505  -0.53916
  Beta  occ. eigenvalues --   -0.53616  -0.52942  -0.49995  -0.49804  -0.47185
  Beta  occ. eigenvalues --   -0.46829  -0.45808  -0.44971  -0.42499  -0.42227
  Beta  occ. eigenvalues --   -0.41305  -0.37194  -0.33227  -0.32376  -0.27284
  Beta virt. eigenvalues --    0.02933   0.08793   0.11568   0.12201   0.14324
  Beta virt. eigenvalues --    0.14409   0.15715   0.16131   0.17330   0.18457
  Beta virt. eigenvalues --    0.20043   0.20504   0.21568   0.22440   0.22786

 Mulliken charges and spin densities:
               1          2
     1  C   -0.136266  -0.000000
     2  C    0.058078   0.000000
     3  C    0.092835  -0.000000
     4  F   -0.129581  -0.000000
     5  C   -0.129354   0.000000
     6  S    0.180222   0.000000
     7  C   -0.159352  -0.000000
     8  C    0.135414   0.000000
     9  O   -0.255586   0.000000
    10  C    0.056619   0.000000
    11  C    0.021217   0.000000
    12  C   -0.131515  -0.000000
    13  S    0.178430  -0.000000
    14  H    0.032082  -0.000000
    15  H    0.005810   0.000000
    16  H    0.057287  -0.000000
    17  H    0.046708  -0.000000
    18  H    0.046706  -0.000000
    19  H   -0.000478  -0.000000
    20  H    0.030725   0.000000
 Sum of Mulliken charges =  -0.00000   0.00000

 Dipole moment (field-independent basis, Debye):
    X=             -1.7842    Y=              1.8125    Z=             -0.0002  Tot=              2.5433
 Quadrupole moment (field-independent basis, Debye-Ang):
   XX=            -69.4639   YY=            -81.7282   ZZ=            -91.7848
   XY=             -0.1991   XZ=              0.0014   YZ=             -0.0014

 Normal termination of Gaussian 16 at Fri Jul 24 09:18:36 2020.
