 Gaussian 16, Revision A.03,
 Gaussian 16:  EM64L-G16RevA.03 25-Dec-2016

 ---------------------------------------------------------------
 #P uLC-wPBE/cc-pVDZ iop(3/107=0104900000, 3/108=0104900000) opt
 ---------------------------------------------------------------

 -------------
 H17 C27 S3 N3
 -------------
 Symbolic Z-matrix:
 Charge =  0 Multiplicity = 1

 SCF Done:  E(ULC-wPBE) =  -2396.26420972     A.U. after   16 cycles
 SCF Done:  E(ULC-wPBE) =  -2396.32599613     A.U. after   14 cycles
 SCF Done:  E(ULC-wPBE) =  -2396.36742411     A.U. after   15 cycles
 SCF Done:  E(ULC-wPBE) =  -2396.37046157     A.U. after   14 cycles
 SCF Done:  E(ULC-wPBE) =  -2396.37133539     A.U. after   14 cycles
 SCF Done:  E(ULC-wPBE) =  -2396.37152261     A.U. after   13 cycles
 SCF Done:  E(ULC-wPBE) =  -2396.37162205     A.U. after   12 cycles
 SCF Done:  E(ULC-wPBE) =  -2396.37165626     A.U. after   11 cycles
 SCF Done:  E(ULC-wPBE) =  -2396.37166432     A.U. after   11 cycles
 SCF Done:  E(ULC-wPBE) =  -2396.37166740     A.U. after   11 cycles
 SCF Done:  E(ULC-wPBE) =  -2396.37166799     A.U. after    8 cycles
 SCF Done:  E(ULC-wPBE) =  -2396.37166806     A.U. after    7 cycles
 Optimization completed.
    -- Stationary point found.

                         Standard orientation:
 ---------------------------------------------------------------------
 Center     Atomic      Atomic             Coordinates (Angstroms)
 Number     Number       Type             X           Y           Z
 ---------------------------------------------------------------------
      1          6           0       10.244853    2.971350   -0.103921
      2          6           0       10.631760    1.656785    0.194357
      3          6           0        9.652333    0.664784    0.288326
      4          6           0        8.300745    1.020884    0.080250
      5          7           0        7.921824    2.290516   -0.208488
      6          6           0        8.878892    3.226862   -0.295085
      7          6           0        7.213296    0.041762    0.160188
      8          6           0        7.238300   -1.319247    0.436608
      9          6           0        5.952060   -1.917423    0.416971
     10          6           0        4.930089   -1.017631    0.127375
     11         16           0        5.577695    0.591590   -0.133374
     12          6           0        3.493079   -1.284987    0.031912
     13          6           0        2.991293   -2.584600   -0.208909
     14          6           0        1.616837   -2.797824   -0.278790
     15          6           0        0.740131   -1.700342   -0.120786
     16          7           0        1.203864   -0.446170    0.107329
     17          6           0        2.525158   -0.263063    0.183870
     18          6           0       -0.713809   -1.838485   -0.192335
     19          6           0       -1.506663   -2.957327   -0.418622
     20          6           0       -2.895687   -2.670139   -0.412322
     21          6           0       -3.179567   -1.326777   -0.181018
     22         16           0       -1.700161   -0.410191    0.038356
     23          6           0       -4.490436   -0.677230   -0.108213
     24          6           0       -4.676458    0.703721   -0.336570
     25          6           0       -5.954411    1.253554   -0.256822
     26          6           0       -7.052188    0.416047    0.041080
     27          7           0       -6.891358   -0.911921    0.271735
     28          6           0       -5.657159   -1.418272    0.203994
     29          6           0       -8.432020    0.910297    0.125988
     30          6           0       -9.566527    0.167674    0.420978
     31          6           0      -10.761085    0.942067    0.426132
     32          6           0      -10.534962    2.272900    0.135036
     33         16           0       -8.853291    2.590942   -0.148671
     34          1           0       10.982074    3.781515   -0.187121
     35          1           0       11.690434    1.405259    0.352595
     36          1           0        9.928851   -0.372857    0.519172
     37          1           0        8.529689    4.245738   -0.532007
     38          1           0        8.159485   -1.873128    0.656521
     39          1           0        5.773459   -2.977238    0.638398
     40          1           0        3.684083   -3.424552   -0.359668
     41          1           0        1.224273   -3.806012   -0.467706
     42          1           0        2.851771    0.770449    0.391983
     43          1           0       -1.097319   -3.959901   -0.594948
     44          1           0       -3.671587   -3.422220   -0.602025
     45          1           0       -3.817650    1.342243   -0.591504
     46          1           0       -6.103155    2.328120   -0.436138
     47          1           0       -5.573120   -2.494739    0.428901
     48          1           0       -9.500099   -0.907214    0.623906
     49          1           0      -11.758060    0.535561    0.637383
     50          1           0      -11.258453    3.092532    0.069229
 ---------------------------------------------------------------------

 The electronic state is 1-A.
 Alpha  occ. eigenvalues --  -88.16221 -88.16097 -88.15998 -14.06296 -14.06293
 Alpha  occ. eigenvalues --  -14.05771 -10.01377 -10.01152 -10.00779  -9.99986
 Alpha  occ. eigenvalues --   -9.99980  -9.99943  -9.99744  -9.99616  -9.99588
 Alpha  occ. eigenvalues --   -9.99415  -9.98944  -9.98876  -9.98823  -9.98724
 Alpha  occ. eigenvalues --   -9.98599  -9.98547  -9.98131  -9.97960  -9.97898
 Alpha  occ. eigenvalues --   -9.97612  -9.97402  -9.97393  -9.97205  -9.97175
 Alpha  occ. eigenvalues --   -9.96919  -9.96555  -9.96110  -7.76427  -7.76374
 Alpha  occ. eigenvalues --   -7.76211  -5.78510  -5.78444  -5.78294  -5.78064
 Alpha  occ. eigenvalues --   -5.78005  -5.77849  -5.77694  -5.77642  -5.77475
 Alpha  occ. eigenvalues --   -0.93009  -0.92906  -0.92462  -0.87250  -0.86838
 Alpha  occ. eigenvalues --   -0.86217  -0.80834  -0.80218  -0.79584  -0.78106
 Alpha  occ. eigenvalues --   -0.77463  -0.76640  -0.73646  -0.73215  -0.72886
 Alpha  occ. eigenvalues --   -0.72623  -0.71116  -0.69054  -0.65461  -0.64577
 Alpha  occ. eigenvalues --   -0.63701  -0.63305  -0.62649  -0.62112  -0.56902
 Alpha  occ. eigenvalues --   -0.56735  -0.56476  -0.56026  -0.55694  -0.55192
 Alpha  occ. eigenvalues --   -0.53817  -0.53031  -0.52027  -0.50881  -0.49992
 Alpha  occ. eigenvalues --   -0.49867  -0.49672  -0.47608  -0.46895  -0.46577
 Alpha  occ. eigenvalues --   -0.46123  -0.45235  -0.44026  -0.43511  -0.43286
 Alpha  occ. eigenvalues --   -0.43096  -0.42533  -0.42102  -0.41885  -0.41872
 Alpha  occ. eigenvalues --   -0.41401  -0.40937  -0.40204  -0.40075  -0.39863
 Alpha  occ. eigenvalues --   -0.39549  -0.39271  -0.38848  -0.38799  -0.38430
 Alpha  occ. eigenvalues --   -0.38302  -0.36388  -0.36126  -0.35923  -0.34619
 Alpha  occ. eigenvalues --   -0.33024  -0.32249  -0.31696  -0.31295  -0.30478
 Alpha  occ. eigenvalues --   -0.28535  -0.28318  -0.28071  -0.27966  -0.27696
 Alpha  occ. eigenvalues --   -0.27261  -0.26837  -0.24677  -0.22572
 Alpha virt. eigenvalues --   -0.05560  -0.03457  -0.01381  -0.00843  -0.00564
 Alpha virt. eigenvalues --   -0.00456   0.01856   0.03901   0.05356   0.05595
 Alpha virt. eigenvalues --    0.06081   0.06185   0.07568   0.07967   0.08611

  Beta  occ. eigenvalues --  -88.16221 -88.16097 -88.15998 -14.06296 -14.06293
  Beta  occ. eigenvalues --  -14.05771 -10.01377 -10.01152 -10.00779  -9.99986
  Beta  occ. eigenvalues --   -9.99980  -9.99943  -9.99744  -9.99616  -9.99588
  Beta  occ. eigenvalues --   -9.99415  -9.98944  -9.98876  -9.98823  -9.98724
  Beta  occ. eigenvalues --   -9.98599  -9.98547  -9.98131  -9.97960  -9.97898
  Beta  occ. eigenvalues --   -9.97612  -9.97402  -9.97393  -9.97205  -9.97175
  Beta  occ. eigenvalues --   -9.96919  -9.96555  -9.96110  -7.76427  -7.76374
  Beta  occ. eigenvalues --   -7.76211  -5.78510  -5.78444  -5.78294  -5.78064
  Beta  occ. eigenvalues --   -5.78005  -5.77849  -5.77694  -5.77642  -5.77475
  Beta  occ. eigenvalues --   -0.93009  -0.92906  -0.92462  -0.87250  -0.86838
  Beta  occ. eigenvalues --   -0.86217  -0.80834  -0.80218  -0.79584  -0.78106
  Beta  occ. eigenvalues --   -0.77463  -0.76640  -0.73646  -0.73215  -0.72886
  Beta  occ. eigenvalues --   -0.72623  -0.71116  -0.69054  -0.65461  -0.64577
  Beta  occ. eigenvalues --   -0.63701  -0.63305  -0.62649  -0.62112  -0.56902
  Beta  occ. eigenvalues --   -0.56735  -0.56476  -0.56026  -0.55694  -0.55192
  Beta  occ. eigenvalues --   -0.53817  -0.53031  -0.52027  -0.50881  -0.49992
  Beta  occ. eigenvalues --   -0.49867  -0.49672  -0.47608  -0.46895  -0.46577
  Beta  occ. eigenvalues --   -0.46123  -0.45235  -0.44026  -0.43511  -0.43286
  Beta  occ. eigenvalues --   -0.43096  -0.42533  -0.42102  -0.41885  -0.41872
  Beta  occ. eigenvalues --   -0.41401  -0.40937  -0.40204  -0.40075  -0.39863
  Beta  occ. eigenvalues --   -0.39549  -0.39271  -0.38848  -0.38799  -0.38430
  Beta  occ. eigenvalues --   -0.38302  -0.36388  -0.36126  -0.35923  -0.34619
  Beta  occ. eigenvalues --   -0.33024  -0.32249  -0.31696  -0.31295  -0.30478
  Beta  occ. eigenvalues --   -0.28535  -0.28318  -0.28071  -0.27966  -0.27696
  Beta  occ. eigenvalues --   -0.27261  -0.26837  -0.24677  -0.22572
  Beta virt. eigenvalues --   -0.05560  -0.03457  -0.01381  -0.00843  -0.00564
  Beta virt. eigenvalues --   -0.00456   0.01856   0.03901   0.05356   0.05595
  Beta virt. eigenvalues --    0.06081   0.06185   0.07568   0.07967   0.08611

 Mulliken charges and spin densities:
               1          2
     1  C   -0.023934  -0.000000
     2  C    0.077393   0.000000
     3  C    0.003000  -0.000000
     4  C    0.133032  -0.000000
     5  N   -0.213125   0.000000
     6  C    0.095582   0.000000
     7  C   -0.122210   0.000000
     8  C    0.018037   0.000000
     9  C    0.037729  -0.000000
    10  C   -0.153444   0.000000
    11  S    0.184313   0.000000
    12  C    0.025008   0.000000
    13  C    0.058262  -0.000000
    14  C    0.020503   0.000000
    15  C    0.143267  -0.000000
    16  N   -0.212317   0.000000
    17  C    0.087750  -0.000000
    18  C   -0.126314   0.000000
    19  C    0.010948  -0.000000
    20  C    0.041309   0.000000
    21  C   -0.150030  -0.000000
    22  S    0.179807  -0.000000
    23  C    0.017419  -0.000000
    24  C    0.056680   0.000000
    25  C    0.015223  -0.000000
    26  C    0.121893   0.000000
    27  N   -0.199030   0.000000
    28  C    0.083782  -0.000000
    29  C   -0.147997   0.000000
    30  C    0.053486  -0.000000
    31  C    0.077857   0.000000
    32  C   -0.119620  -0.000000
    33  S    0.128205  -0.000000
    34  H   -0.012823  -0.000000
    35  H   -0.009275   0.000000
    36  H   -0.019254   0.000000
    37  H    0.002372   0.000000
    38  H   -0.021894   0.000000
    39  H   -0.023246   0.000000
    40  H   -0.022973   0.000000
    41  H   -0.021557   0.000000
    42  H    0.006119  -0.000000
    43  H   -0.022618  -0.000000
    44  H   -0.019828   0.000000
    45  H   -0.010956  -0.000000
    46  H   -0.010728   0.000000
    47  H   -0.007422  -0.000000
    48  H   -0.015299   0.000000
    49  H   -0.013670   0.000000
    50  H    0.020586   0.000000
 Sum of Mulliken charges =  -0.00000   0.00000

 Dipole moment (field-independent basis, Debye):
    X=              3.9172    Y=             -1.4628    Z=             -0.1849  Tot=              4.1855
 Quadrupole moment (field-independent basis, Debye-Ang):
   XX=           -149.0165   YY=           -184.8614   ZZ=           -218.1471
   XY=             -8.6169   XZ=              4.0340   YZ=             -0.9050

 Normal termination of Gaussian 16 at Sat Jul 25 09:23:40 2020.
