 Gaussian 16, Revision A.03,
 Gaussian 16:  EM64L-G16RevA.03 25-Dec-2016

 ---------------------------------------------------------------
 #P uLC-wPBE/cc-pVDZ iop(3/107=0406500000, 3/108=0406500000) opt
 ---------------------------------------------------------------

 -------------
 H37 C70 S7 F7
 -------------
 Symbolic Z-matrix:
 Charge =  0 Multiplicity = 1

 SCF Done:  E(ULC-wPBE) =  -6172.67788758     A.U. after   17 cycles
 SCF Done:  E(ULC-wPBE) =  -6172.78070740     A.U. after   13 cycles
 SCF Done:  E(ULC-wPBE) =  -6172.88636830     A.U. after   14 cycles
 SCF Done:  E(ULC-wPBE) =  -6172.91698283     A.U. after   14 cycles
 SCF Done:  E(ULC-wPBE) =  -6172.92327665     A.U. after   14 cycles
 SCF Done:  E(ULC-wPBE) =  -6172.92454202     A.U. after   13 cycles
 SCF Done:  E(ULC-wPBE) =  -6172.92511973     A.U. after   14 cycles
 SCF Done:  E(ULC-wPBE) =  -6172.92556968     A.U. after   13 cycles
 SCF Done:  E(ULC-wPBE) =  -6172.92579478     A.U. after   14 cycles
 SCF Done:  E(ULC-wPBE) =  -6172.92585845     A.U. after   12 cycles
 SCF Done:  E(ULC-wPBE) =  -6172.92592023     A.U. after   11 cycles
 SCF Done:  E(ULC-wPBE) =  -6172.92592122     A.U. after   10 cycles
 SCF Done:  E(ULC-wPBE) =  -6172.92592201     A.U. after   10 cycles
 SCF Done:  E(ULC-wPBE) =  -6172.92592228     A.U. after   10 cycles
 SCF Done:  E(ULC-wPBE) =  -6172.92592234     A.U. after   10 cycles
 SCF Done:  E(ULC-wPBE) =  -6172.92592238     A.U. after    7 cycles
 SCF Done:  E(ULC-wPBE) =  -6172.92592240     A.U. after    7 cycles
 SCF Done:  E(ULC-wPBE) =  -6172.92592253     A.U. after    6 cycles
 SCF Done:  E(ULC-wPBE) =  -6172.92592248     A.U. after    7 cycles
 SCF Done:  E(ULC-wPBE) =  -6172.92592241     A.U. after    6 cycles
 Optimization completed.
    -- Stationary point found.

                         Standard orientation:
 ---------------------------------------------------------------------
 Center     Atomic      Atomic             Coordinates (Angstroms)
 Number     Number       Type             X           Y           Z
 ---------------------------------------------------------------------
      1          6           0      -26.031648    4.281240    1.722802
      2          6           0      -25.002474    3.941260    2.590966
      3          6           0      -23.804234    3.449822    2.094989
      4          6           0      -23.615077    3.281532    0.721166
      5          6           0      -24.656943    3.624889   -0.144746
      6          6           0      -25.851586    4.121993    0.354830
      7          6           0      -22.346800    2.750802    0.196695
      8          6           0      -21.765500    2.941698   -1.022288
      9          9           0      -22.309978    3.689061   -1.991521
     10          6           0      -20.521648    2.293304   -1.215824
     11          6           0      -20.145967    1.584655   -0.112218
     12         16           0      -21.321037    1.729438    1.141724
     13          6           0      -18.928072    0.780280    0.075959
     14          6           0      -17.741954    1.135606   -0.567883
     15          6           0      -16.595737    0.376072   -0.412490
     16          6           0      -16.586645   -0.757052    0.404912
     17          6           0      -17.772321   -1.107888    1.055982
     18          6           0      -18.921558   -0.354230    0.888501
     19          6           0      -15.363341   -1.552018    0.579278
     20          6           0      -15.223320   -2.859851    0.942883
     21          9           0      -16.258324   -3.668023    1.205497
     22          6           0      -13.892667   -3.337660    1.010035
     23          6           0      -12.991386   -2.364390    0.690487
     24         16           0      -13.790067   -0.879598    0.328494
     25          6           0      -11.524316   -2.467080    0.649695
     26          6           0      -10.765853   -1.710541   -0.244163
     27          6           0       -9.386852   -1.825609   -0.278853
     28          6           0       -8.714847   -2.699690    0.578544
     29          6           0       -9.475264   -3.457138    1.474582
     30          6           0      -10.853665   -3.338998    1.509094
     31          6           0       -7.250486   -2.815055    0.543471
     32          6           0       -6.452347   -3.847033    0.943847
     33          9           0       -6.924046   -4.983682    1.472139
     34          6           0       -5.062027   -3.650457    0.766111
     35          6           0       -4.792218   -2.431059    0.216542
     36         16           0       -6.245907   -1.551338   -0.076184
     37          6           0       -3.477866   -1.859304   -0.116299
     38          6           0       -2.424444   -2.690927   -0.498946
     39          6           0       -1.180934   -2.165380   -0.802321
     40          6           0       -0.943528   -0.789953   -0.736183
     41          6           0       -2.000481    0.042872   -0.359042
     42          6           0       -3.243558   -0.485049   -0.054546
     43          6           0        0.380353   -0.237187   -1.052219
     44          6           0        0.719458    1.017716   -1.467565
     45          9           0       -0.173507    1.995200   -1.667925
     46          6           0        2.098543    1.233012   -1.702023
     47          6           0        2.832665    0.109480   -1.455584
     48         16           0        1.821908   -1.183907   -0.927698
     49          6           0        4.288404   -0.066199   -1.577070
     50          6           0        4.847327   -1.296166   -1.926413
     51          6           0        6.218003   -1.451896   -2.043025
     52          6           0        7.080650   -0.374586   -1.823397
     53          6           0        6.519260    0.857795   -1.478936
     54          6           0        5.149852    1.008020   -1.349758
     55          6           0        8.536234   -0.533044   -1.944290
     56          6           0        9.252741   -1.458720   -2.645872
     57          9           0        8.689773   -2.422913   -3.385273
     58          6           0       10.660162   -1.331755   -2.566965
     59          6           0       11.027490   -0.279460   -1.779838
     60         16           0        9.642923    0.524866   -1.140305
     61          6           0       12.387987    0.173136   -1.449621
     62          6           0       12.671730    1.519528   -1.217331
     63          6           0       13.955737    1.937693   -0.912250
     64          6           0       15.007328    1.020232   -0.838921
     65          6           0       14.722701   -0.326958   -1.076743
     66          6           0       13.436202   -0.744653   -1.368389
     67          6           0       16.372060    1.457268   -0.514922
     68          6           0       16.948017    2.685249   -0.665566
     69          9           0       16.305971    3.744413   -1.174514
     70          6           0       18.302164    2.779693   -0.264750
     71          6           0       18.771627    1.588875    0.207696
     72         16           0       17.541897    0.380908    0.165650
     73          6           0       20.117434    1.284806    0.719121
     74          6           0       20.866174    2.270177    1.364749
     75          6           0       22.140497    2.005283    1.835333
     76          6           0       22.707235    0.736120    1.688212
     77          6           0       21.952555   -0.252152    1.053039
     78          6           0       20.683419    0.018342    0.570735
     79          6           0       24.060679    0.449844    2.186559
     80          6           0       24.759883    1.061419    3.186561
     81          9           0       24.277943    2.082133    3.907192
     82          6           0       26.053958    0.536386    3.435345
     83          6           0       26.328040   -0.493969    2.594093
     84         16           0       25.035839   -0.812236    1.519198
     85          1           0      -26.973422    4.670685    2.112152
     86          1           0      -25.129368    4.065541    3.667474
     87          1           0      -22.997109    3.203149    2.787552
     88          1           0      -24.529059    3.496788   -1.218530
     89          1           0      -26.654313    4.383631   -0.336385
     90          1           0      -19.960946    2.343746   -2.146600
     91          1           0      -17.712311    2.029530   -1.192081
     92          1           0      -15.687663    0.672740   -0.940479
     93          1           0      -17.796504   -1.985756    1.699152
     94          1           0      -19.838154   -0.663411    1.394216
     95          1           0      -13.639740   -4.367111    1.253789
     96          1           0      -11.263138   -1.035107   -0.942536
     97          1           0       -8.824292   -1.234408   -1.003603
     98          1           0       -8.978452   -4.137793    2.163621
     99          1           0      -11.420666   -3.920539    2.237180
    100          1           0       -4.313335   -4.381878    1.062086
    101          1           0       -2.587634   -3.765861   -0.585421
    102          1           0       -0.382843   -2.839907   -1.117472
    103          1           0       -1.843938    1.117956   -0.291442
    104          1           0       -4.043873    0.187633    0.259316
    105          1           0        2.501751    2.174714   -2.067755
    106          1           0        4.196974   -2.150443   -2.123147
    107          1           0        6.625484   -2.424356   -2.313278
    108          1           0        7.165328    1.720666   -1.307659
    109          1           0        4.742161    1.975542   -1.054361
    110          1           0       11.348795   -1.980800   -3.103302
    111          1           0       11.873883    2.261156   -1.287083
    112          1           0       14.146485    2.994108   -0.732259
    113          1           0       15.523349   -1.067494   -1.033751
    114          1           0       13.239321   -1.806085   -1.523922
    115          1           0       18.891042    3.689127   -0.361111
    116          1           0       20.437432    3.261910    1.514481
    117          1           0       22.703635    2.793765    2.331582
    118          1           0       22.362262   -1.256679    0.933532
    119          1           0       20.126586   -0.769501    0.060348
    120          1           0       26.721450    0.918747    4.204214
    121          1           0       27.237416   -1.087821    2.543683
 ---------------------------------------------------------------------

 Alpha  occ. eigenvalues --   -0.61000  -0.60795  -0.60708  -0.60587  -0.60537
 Alpha  occ. eigenvalues --   -0.60240  -0.60147  -0.60006  -0.59946  -0.59706
 Alpha  occ. eigenvalues --   -0.59647  -0.59325  -0.59111  -0.58716  -0.58403
 Alpha  occ. eigenvalues --   -0.57471  -0.57020  -0.56923  -0.56791  -0.56694
 Alpha  occ. eigenvalues --   -0.56556  -0.56367  -0.56198  -0.56063  -0.55894
 Alpha  occ. eigenvalues --   -0.55771  -0.55718  -0.55552  -0.55504  -0.55433
 Alpha  occ. eigenvalues --   -0.55254  -0.55195  -0.55073  -0.54818  -0.54405
 Alpha  occ. eigenvalues --   -0.54314  -0.54256  -0.54089  -0.53621  -0.53265
 Alpha  occ. eigenvalues --   -0.53122  -0.52789  -0.52441  -0.52111  -0.51899
 Alpha  occ. eigenvalues --   -0.51864  -0.51665  -0.51335  -0.51045  -0.50892
 Alpha  occ. eigenvalues --   -0.50597  -0.50501  -0.50274  -0.50220  -0.49861
 Alpha  occ. eigenvalues --   -0.49742  -0.49376  -0.49336  -0.49059  -0.48803
 Alpha  occ. eigenvalues --   -0.48521  -0.48258  -0.47971  -0.47831  -0.47607
 Alpha  occ. eigenvalues --   -0.47566  -0.47462  -0.47444  -0.47184  -0.47064
 Alpha  occ. eigenvalues --   -0.46393  -0.46262  -0.46015  -0.45800  -0.45467
 Alpha  occ. eigenvalues --   -0.45279  -0.45144  -0.44809  -0.43443  -0.42910
 Alpha  occ. eigenvalues --   -0.42106  -0.41210  -0.40045  -0.38886  -0.37765
 Alpha  occ. eigenvalues --   -0.37744  -0.37695  -0.37640  -0.37604  -0.37494
 Alpha  occ. eigenvalues --   -0.37281  -0.36776  -0.36602  -0.36591  -0.36521
 Alpha  occ. eigenvalues --   -0.36458  -0.36323  -0.36293  -0.35870  -0.35093
 Alpha  occ. eigenvalues --   -0.34012  -0.32739  -0.31501  -0.30381  -0.29434
 Alpha  occ. eigenvalues --   -0.28885
 Alpha virt. eigenvalues --   -0.01165  -0.00461   0.00482   0.01688   0.02915
 Alpha virt. eigenvalues --    0.04242   0.05661   0.05839   0.05966   0.06164
 Alpha virt. eigenvalues --    0.06243   0.06344   0.06485   0.06810   0.07564

  Beta  occ. eigenvalues --  -88.33924 -88.33826 -88.33766 -88.33707 -88.33632
  Beta  occ. eigenvalues --  -88.33496 -88.33075 -24.51878 -24.51860 -24.51835
  Beta  occ. eigenvalues --  -24.51764 -24.51716 -24.51529 -24.51046 -10.21948
  Beta  occ. eigenvalues --  -10.21910 -10.21898 -10.21834 -10.21767 -10.21595
  Beta  occ. eigenvalues --  -10.21096 -10.18032 -10.17982 -10.17923 -10.17854
  Beta  occ. eigenvalues --  -10.17697 -10.17285 -10.17248 -10.17089 -10.17052
  Beta  occ. eigenvalues --  -10.16999 -10.16927 -10.16865 -10.16715 -10.16240
  Beta  occ. eigenvalues --  -10.16130 -10.16102 -10.16045 -10.15974 -10.15884
  Beta  occ. eigenvalues --  -10.15883 -10.15822 -10.15763 -10.15699 -10.15663
  Beta  occ. eigenvalues --  -10.15590 -10.15349 -10.14894 -10.14649 -10.14481
  Beta  occ. eigenvalues --  -10.14441 -10.14424 -10.14410 -10.14394 -10.14365
  Beta  occ. eigenvalues --  -10.14363 -10.14358 -10.14334 -10.14316 -10.14303
  Beta  occ. eigenvalues --  -10.14298 -10.14269 -10.14260 -10.14238 -10.14197
  Beta  occ. eigenvalues --  -10.14188 -10.14133 -10.14128 -10.14123 -10.14078
  Beta  occ. eigenvalues --  -10.14067 -10.14011 -10.13971 -10.13950 -10.13930
  Beta  occ. eigenvalues --  -10.13856 -10.13835 -10.13769 -10.13645 -10.13110
  Beta  occ. eigenvalues --  -10.12987 -10.12902 -10.12850 -10.12830  -7.94713
  Beta  occ. eigenvalues --   -7.94606  -7.94545  -7.94486  -7.94412  -7.94275
  Beta  occ. eigenvalues --   -7.93854  -5.96212  -5.96113  -5.96053  -5.95994
  Beta  occ. eigenvalues --   -5.95919  -5.95782  -5.95680  -5.95585  -5.95524
  Beta  occ. eigenvalues --   -5.95465  -5.95391  -5.95360  -5.95254  -5.95252
  Beta  occ. eigenvalues --   -5.95127  -5.95066  -5.95008  -5.94933  -5.94832
  Beta  occ. eigenvalues --   -5.94796  -5.94377  -1.36444  -1.36420  -1.36398
  Beta  occ. eigenvalues --   -1.36330  -1.36276  -1.36092  -1.35598  -1.07482
  Beta  occ. eigenvalues --   -1.07351  -1.07216  -1.07070  -1.06915  -1.06795
  Beta  occ. eigenvalues --   -1.06510  -1.04083  -1.03794  -1.03451  -1.03086
  Beta  occ. eigenvalues --   -1.02743  -1.02463  -1.01701  -0.97308  -0.96804
  Beta  occ. eigenvalues --   -0.96135  -0.95352  -0.94510  -0.93700  -0.92562
  Beta  occ. eigenvalues --   -0.91850  -0.91753  -0.91666  -0.91558  -0.91413
  Beta  occ. eigenvalues --   -0.91209  -0.90739  -0.90184  -0.90093  -0.90021
  Beta  occ. eigenvalues --   -0.89868  -0.89787  -0.89560  -0.89494  -0.88774
  Beta  occ. eigenvalues --   -0.88578  -0.88011  -0.86997  -0.85922  -0.84956
  Beta  occ. eigenvalues --   -0.84245  -0.80137  -0.79305  -0.78560  -0.78044
  Beta  occ. eigenvalues --   -0.77963  -0.77354  -0.77151  -0.76839  -0.76706
  Beta  occ. eigenvalues --   -0.76370  -0.76204  -0.75446  -0.75217  -0.74595
  Beta  occ. eigenvalues --   -0.72771  -0.72402  -0.71976  -0.71709  -0.71669
  Beta  occ. eigenvalues --   -0.71486  -0.71477  -0.70983  -0.70894  -0.70764
  Beta  occ. eigenvalues --   -0.70672  -0.70559  -0.70462  -0.70171  -0.69219
  Beta  occ. eigenvalues --   -0.68897  -0.68603  -0.68317  -0.67918  -0.67546
  Beta  occ. eigenvalues --   -0.67250  -0.63363  -0.63218  -0.62933  -0.62692
  Beta  occ. eigenvalues --   -0.62453  -0.62257  -0.62095  -0.61875  -0.61628
  Beta  occ. eigenvalues --   -0.61520  -0.61344  -0.61253  -0.61237  -0.61164
  Beta  occ. eigenvalues --   -0.61000  -0.60795  -0.60708  -0.60587  -0.60537
  Beta  occ. eigenvalues --   -0.60240  -0.60147  -0.60006  -0.59946  -0.59706
  Beta  occ. eigenvalues --   -0.59647  -0.59325  -0.59111  -0.58716  -0.58403
  Beta  occ. eigenvalues --   -0.57471  -0.57020  -0.56923  -0.56791  -0.56694
  Beta  occ. eigenvalues --   -0.56556  -0.56367  -0.56198  -0.56063  -0.55894
  Beta  occ. eigenvalues --   -0.55771  -0.55718  -0.55552  -0.55504  -0.55433
  Beta  occ. eigenvalues --   -0.55254  -0.55195  -0.55073  -0.54818  -0.54405
  Beta  occ. eigenvalues --   -0.54314  -0.54256  -0.54089  -0.53621  -0.53265
  Beta  occ. eigenvalues --   -0.53122  -0.52789  -0.52441  -0.52111  -0.51899
  Beta  occ. eigenvalues --   -0.51864  -0.51665  -0.51335  -0.51045  -0.50892
  Beta  occ. eigenvalues --   -0.50597  -0.50501  -0.50274  -0.50220  -0.49861
  Beta  occ. eigenvalues --   -0.49742  -0.49376  -0.49336  -0.49059  -0.48803
  Beta  occ. eigenvalues --   -0.48521  -0.48258  -0.47971  -0.47831  -0.47607
  Beta  occ. eigenvalues --   -0.47566  -0.47462  -0.47444  -0.47184  -0.47064
  Beta  occ. eigenvalues --   -0.46393  -0.46262  -0.46015  -0.45800  -0.45467
  Beta  occ. eigenvalues --   -0.45279  -0.45144  -0.44809  -0.43443  -0.42910
  Beta  occ. eigenvalues --   -0.42106  -0.41210  -0.40045  -0.38886  -0.37765
  Beta  occ. eigenvalues --   -0.37744  -0.37695  -0.37640  -0.37604  -0.37494
  Beta  occ. eigenvalues --   -0.37281  -0.36776  -0.36602  -0.36591  -0.36521
  Beta  occ. eigenvalues --   -0.36458  -0.36323  -0.36293  -0.35870  -0.35093
  Beta  occ. eigenvalues --   -0.34012  -0.32739  -0.31501  -0.30381  -0.29434
  Beta  occ. eigenvalues --   -0.28885
  Beta virt. eigenvalues --   -0.01165  -0.00461   0.00482   0.01688   0.02915
  Beta virt. eigenvalues --    0.04242   0.05661   0.05839   0.05966   0.06164
  Beta virt. eigenvalues --    0.06243   0.06344   0.06485   0.06810   0.07564

 Mulliken charges and spin densities:
               1          2
     1  C   -0.001744   0.000000
     2  C    0.009478  -0.000000
     3  C   -0.023826  -0.000000
     4  C    0.035640   0.000000
     5  C   -0.016888  -0.000000
     6  C    0.011030  -0.000000
     7  C   -0.180281  -0.000000
     8  C    0.125154  -0.000000
     9  F   -0.127808   0.000000
    10  C    0.020919   0.000000
    11  C   -0.149979   0.000000
    12  S    0.170443   0.000000
    13  C    0.037866  -0.000000
    14  C   -0.003157   0.000000
    15  C   -0.007342  -0.000000
    16  C    0.050416  -0.000000
    17  C   -0.002844   0.000000
    18  C   -0.000857  -0.000000
    19  C   -0.183358  -0.000000
    20  C    0.120789   0.000000
    21  F   -0.126436  -0.000000
    22  C    0.022913  -0.000000
    23  C   -0.151899   0.000000
    24  S    0.174500  -0.000000
    25  C    0.041871  -0.000000
    26  C   -0.001596  -0.000000
    27  C   -0.011466   0.000000
    28  C    0.050608   0.000000
    29  C   -0.003386  -0.000000
    30  C   -0.000465   0.000000
    31  C   -0.181526   0.000000
    32  C    0.121306   0.000000
    33  F   -0.126766  -0.000000
    34  C    0.024329  -0.000000
    35  C   -0.149645   0.000000
    36  S    0.171636   0.000000
    37  C    0.039570  -0.000000
    38  C   -0.003992   0.000000
    39  C   -0.007514  -0.000000
    40  C    0.052874   0.000000
    41  C   -0.003946  -0.000000
    42  C   -0.001017  -0.000000
    43  C   -0.183925  -0.000000
    44  C    0.120576  -0.000000
    45  F   -0.126286  -0.000000
    46  C    0.023649   0.000000
    47  C   -0.151057   0.000000
    48  S    0.175811   0.000000
    49  C    0.039241  -0.000000
    50  C    0.000772   0.000000
    51  C   -0.003874   0.000000
    52  C    0.051255  -0.000000
    53  C   -0.007005  -0.000000
    54  C   -0.002962   0.000000
    55  C   -0.183279   0.000000
    56  C    0.120360  -0.000000
    57  F   -0.126396   0.000000
    58  C    0.023909  -0.000000
    59  C   -0.150976   0.000000
    60  S    0.175884  -0.000000
    61  C    0.038908   0.000000
    62  C    0.000906  -0.000000
    63  C   -0.003512   0.000000
    64  C    0.051024  -0.000000
    65  C   -0.006737   0.000000
    66  C   -0.002829  -0.000000
    67  C   -0.183674   0.000000
    68  C    0.120816  -0.000000
    69  F   -0.126199   0.000000
    70  C    0.023881  -0.000000
    71  C   -0.150767   0.000000
    72  S    0.175228   0.000000
    73  C    0.038669  -0.000000
    74  C   -0.000887   0.000000
    75  C    0.000200   0.000000
    76  C    0.053297  -0.000000
    77  C   -0.006158   0.000000
    78  C   -0.003043   0.000000
    79  C   -0.187911  -0.000000
    80  C    0.102519   0.000000
    81  F   -0.127543  -0.000000
    82  C    0.042123  -0.000000
    83  C   -0.135096   0.000000
    84  S    0.171077   0.000000
    85  H    0.007308   0.000000
    86  H    0.008644  -0.000000
    87  H    0.010686   0.000000
    88  H    0.008464   0.000000
    89  H    0.009305   0.000000
    90  H    0.020157  -0.000000
    91  H    0.003815   0.000000
    92  H    0.011505   0.000000
    93  H    0.011775   0.000000
    94  H    0.013869   0.000000
    95  H    0.022139  -0.000000
    96  H    0.011081  -0.000000
    97  H    0.015159  -0.000000
    98  H    0.012153  -0.000000
    99  H    0.004511   0.000000
   100  H    0.021801   0.000000
   101  H    0.004299  -0.000000
   102  H    0.012455  -0.000000
   103  H    0.012348   0.000000
   104  H    0.014059   0.000000
   105  H    0.022015  -0.000000
   106  H    0.011692   0.000000
   107  H    0.012397  -0.000000
   108  H    0.012761   0.000000
   109  H    0.004314  -0.000000
   110  H    0.021907  -0.000000
   111  H    0.011762   0.000000
   112  H    0.012614   0.000000
   113  H    0.012349   0.000000
   114  H    0.004214  -0.000000
   115  H    0.022385   0.000000
   116  H    0.005082   0.000000
   117  H    0.012920   0.000000
   118  H    0.013269   0.000000
   119  H    0.011286   0.000000
   120  H    0.027377   0.000000
   121  H    0.052528  -0.000000
 Sum of Mulliken charges =  -0.00000   0.00000

 Dipole moment (field-independent basis, Debye):
    X=              8.5560    Y=             -0.7323    Z=              0.6681  Tot=              8.6133
 Quadrupole moment (field-independent basis, Debye-Ang):
   XX=           -404.7720   YY=           -503.0637   ZZ=           -524.3667
   XY=            -20.1834   XZ=              2.5827   YZ=             -0.6994

 Normal termination of Gaussian 16 at Sat Jul 25 17:58:39 2020.
