 Gaussian 16, Revision A.03,
 Gaussian 16:  EM64L-G16RevA.03 25-Dec-2016

 ---------------------------------------------------------------
 #P uLC-wPBE/cc-pVDZ iop(3/107=0416800000, 3/108=0416800000) opt
 ---------------------------------------------------------------

 -----------
 H4 C6 S2 N2
 -----------
 Symbolic Z-matrix:
 Charge =  0 Multiplicity = 1

 SCF Done:  E(ULC-wPBE) =  -1136.43254267     A.U. after   17 cycles
 SCF Done:  E(ULC-wPBE) =  -1136.45934449     A.U. after   15 cycles
 SCF Done:  E(ULC-wPBE) =  -1136.46278546     A.U. after   14 cycles
 SCF Done:  E(ULC-wPBE) =  -1136.46309798     A.U. after   13 cycles
 SCF Done:  E(ULC-wPBE) =  -1136.46313917     A.U. after   12 cycles
 SCF Done:  E(ULC-wPBE) =  -1136.46314630     A.U. after   10 cycles
 SCF Done:  E(ULC-wPBE) =  -1136.46315373     A.U. after   10 cycles
 SCF Done:  E(ULC-wPBE) =  -1136.46315516     A.U. after    9 cycles
 SCF Done:  E(ULC-wPBE) =  -1136.46315554     A.U. after    8 cycles
 Optimization completed.
    -- Stationary point found.

                         Standard orientation:
 ---------------------------------------------------------------------
 Center     Atomic      Atomic             Coordinates (Angstroms)
 Number     Number       Type             X           Y           Z
 ---------------------------------------------------------------------
      1          6           0       -3.113540   -0.058676   -0.000442
      2          6           0       -2.616322    1.205699    0.000496
      3          7           0       -1.252478    1.302441    0.000328
      4          6           0       -0.720777    0.119159    0.000098
      5         16           0       -1.833229   -1.194034   -0.000219
      6          6           0        0.720775   -0.119535    0.000106
      7          7           0        1.252715   -1.302640    0.000583
      8          6           0        2.616584   -1.205526    0.000317
      9          6           0        3.113533    0.058933   -0.000539
     10         16           0        1.833011    1.194065   -0.000159
     11          1           0       -4.154158   -0.371237   -0.000967
     12          1           0       -3.215991    2.114222    0.000616
     13          1           0        3.216266   -2.114025    0.000665
     14          1           0        4.154190    0.371619   -0.000858
 ---------------------------------------------------------------------

 The electronic state is 1-A.
 Alpha  occ. eigenvalues --  -88.34488 -88.34486 -14.23651 -14.23651 -10.20995
 Alpha  occ. eigenvalues --  -10.20980 -10.16959 -10.16959 -10.16719 -10.16718
 Alpha  occ. eigenvalues --   -7.95341  -7.95339  -5.96759  -5.96756  -5.96235
 Alpha  occ. eigenvalues --   -5.96233  -5.95900  -5.95897  -1.14920  -1.12748
 Alpha  occ. eigenvalues --   -0.97452  -0.96019  -0.94491  -0.87808  -0.77115
 Alpha  occ. eigenvalues --   -0.75143  -0.71231  -0.67013  -0.65555  -0.61698
 Alpha  occ. eigenvalues --   -0.58890  -0.56828  -0.54755  -0.54592  -0.52291
 Alpha  occ. eigenvalues --   -0.49419  -0.48799  -0.41648  -0.41147  -0.40576
 Alpha  occ. eigenvalues --   -0.39959  -0.38891  -0.33447
 Alpha virt. eigenvalues --    0.01136   0.09355   0.12725   0.13309   0.13570
 Alpha virt. eigenvalues --    0.16517   0.17475   0.17768   0.19567   0.21778
 Alpha virt. eigenvalues --    0.22819   0.25207   0.30691   0.35104   0.35283

  Beta  occ. eigenvalues --  -88.34488 -88.34486 -14.23651 -14.23651 -10.20995
  Beta  occ. eigenvalues --  -10.20980 -10.16959 -10.16959 -10.16719 -10.16718
  Beta  occ. eigenvalues --   -7.95341  -7.95339  -5.96759  -5.96756  -5.96235
  Beta  occ. eigenvalues --   -5.96233  -5.95900  -5.95897  -1.14920  -1.12748
  Beta  occ. eigenvalues --   -0.97452  -0.96019  -0.94491  -0.87808  -0.77115
  Beta  occ. eigenvalues --   -0.75143  -0.71231  -0.67013  -0.65555  -0.61698
  Beta  occ. eigenvalues --   -0.58890  -0.56828  -0.54755  -0.54592  -0.52291
  Beta  occ. eigenvalues --   -0.49419  -0.48799  -0.41648  -0.41147  -0.40576
  Beta  occ. eigenvalues --   -0.39959  -0.38891  -0.33447
  Beta virt. eigenvalues --    0.01136   0.09355   0.12725   0.13309   0.13570
  Beta virt. eigenvalues --    0.16517   0.17475   0.17768   0.19567   0.21778
  Beta virt. eigenvalues --    0.22819   0.25207   0.30691   0.35104   0.35283

 Mulliken charges and spin densities:
               1          2
     1  C   -0.193096   0.000000
     2  C    0.104254   0.000000
     3  N   -0.195695   0.000000
     4  C   -0.004885  -0.000000
     5  S    0.210723  -0.000000
     6  C   -0.004925   0.000000
     7  N   -0.195669   0.000000
     8  C    0.104220   0.000000
     9  C   -0.193089  -0.000000
    10  S    0.210674   0.000000
    11  H    0.052553  -0.000000
    12  H    0.026181  -0.000000
    13  H    0.026157  -0.000000
    14  H    0.052594   0.000000
 Sum of Mulliken charges =  -0.00000  -0.00000

 Dipole moment (field-independent basis, Debye):
    X=             -0.0009    Y=              0.0000    Z=             -0.0008  Tot=              0.0012
 Quadrupole moment (field-independent basis, Debye-Ang):
   XX=            -50.8321   YY=            -71.7197   ZZ=            -73.1194
   XY=              0.0218   XZ=              0.0010   YZ=              0.0008

 Normal termination of Gaussian 16 at Fri Jul 24 08:45:32 2020.
