 Gaussian 16, Revision A.03,
 Gaussian 16:  EM64L-G16RevA.03 25-Dec-2016

 ---------------------------------------------------------------
 #P uLC-wPBE/cc-pVDZ iop(3/107=0090000000, 3/108=0090000000) opt
 ---------------------------------------------------------------

 -------------
 H11 C24 S6 F3
 -------------
 Symbolic Z-matrix:
 Charge =  0 Multiplicity = 1

 SCF Done:  E(ULC-wPBE) =  -3607.78802828     A.U. after   16 cycles
 SCF Done:  E(ULC-wPBE) =  -3607.83755828     A.U. after   14 cycles
 SCF Done:  E(ULC-wPBE) =  -3607.85871343     A.U. after   14 cycles
 SCF Done:  E(ULC-wPBE) =  -3607.85951860     A.U. after   13 cycles
 SCF Done:  E(ULC-wPBE) =  -3607.85969967     A.U. after   11 cycles
 SCF Done:  E(ULC-wPBE) =  -3607.85972888     A.U. after   10 cycles
 SCF Done:  E(ULC-wPBE) =  -3607.85973204     A.U. after    9 cycles
 SCF Done:  E(ULC-wPBE) =  -3607.85973359     A.U. after    8 cycles
 SCF Done:  E(ULC-wPBE) =  -3607.85973418     A.U. after    8 cycles
 SCF Done:  E(ULC-wPBE) =  -3607.85973464     A.U. after    8 cycles
 SCF Done:  E(ULC-wPBE) =  -3607.85973479     A.U. after    8 cycles
 SCF Done:  E(ULC-wPBE) =  -3607.85973486     A.U. after    8 cycles
 SCF Done:  E(ULC-wPBE) =  -3607.85973494     A.U. after    7 cycles
 SCF Done:  E(ULC-wPBE) =  -3607.85973495     A.U. after    7 cycles
 SCF Done:  E(ULC-wPBE) =  -3607.85973502     A.U. after    6 cycles
 SCF Done:  E(ULC-wPBE) =  -3607.85973500     A.U. after    6 cycles
 Optimization completed.
    -- Stationary point found.

                         Standard orientation:
 ---------------------------------------------------------------------
 Center     Atomic      Atomic             Coordinates (Angstroms)
 Number     Number       Type             X           Y           Z
 ---------------------------------------------------------------------
      1          6           0      -11.128732   -0.320550   -0.001778
      2          6           0      -10.606657   -1.597964   -0.003226
      3          6           0       -9.183276   -1.610116   -0.002539
      4          6           0       -8.619046   -0.337231   -0.000603
      5         16           0       -9.883558    0.889342    0.000414
      6          6           0       -7.219936    0.026769    0.000525
      7          6           0       -6.629999    1.285073    0.002881
      8          9           0       -7.370537    2.418500    0.004507
      9          6           0       -5.215852    1.310817    0.003689
     10          6           0       -4.670790    0.032289    0.001847
     11         16           0       -5.945713   -1.186137   -0.001155
     12          6           0       -3.282362   -0.369457    0.001988
     13          6           0       -2.739124   -1.652091    0.004696
     14          6           0       -1.324146   -1.667865    0.004013
     15          6           0       -0.751167   -0.396780    0.000817
     16         16           0       -2.005675    0.839916   -0.001697
     17          6           0        0.646167   -0.041455   -0.000531
     18          6           0        1.242149    1.215502   -0.003875
     19          9           0        0.505471    2.350958   -0.006463
     20          6           0        2.655395    1.234820   -0.004572
     21          6           0        3.194804   -0.046621   -0.001668
     22         16           0        1.915824   -1.260618    0.002150
     23          6           0        4.581545   -0.454051   -0.001349
     24          6           0        5.119183   -1.738659   -0.002164
     25          6           0        6.534681   -1.759367   -0.001638
     26          6           0        7.111458   -0.491378   -0.000437
     27         16           0        5.863276    0.749676    0.000281
     28          6           0        8.513475   -0.138710    0.000266
     29          6           0        9.107698    1.117778    0.001400
     30          9           0        8.373355    2.255435    0.002064
     31          6           0       10.528491    1.130551    0.001831
     32          6           0       11.036444   -0.149768    0.000989
     33         16           0        9.782979   -1.355720   -0.000269
     34          1           0      -12.179530   -0.011911   -0.001908
     35          1           0      -11.226240   -2.503329   -0.004693
     36          1           0       -8.578903   -2.526653   -0.003431
     37          1           0       -4.630771    2.237823    0.005930
     38          1           0       -3.356187   -2.559935    0.007458
     39          1           0       -0.725484   -2.587805    0.005997
     40          1           0        3.244843    2.158977   -0.007427
     41          1           0        4.499045   -2.644430   -0.003394
     42          1           0        7.129799   -2.681601   -0.002258
     43          1           0       11.127771    2.047811    0.002726
     44          1           0       12.084494   -0.465538    0.001068
 ---------------------------------------------------------------------

 The electronic state is 1-A.
 Alpha  occ. eigenvalues --  -88.17052 -88.16655 -88.16303 -88.16185 -88.15950
 Alpha  occ. eigenvalues --  -88.15308 -24.35705 -24.35504 -24.34943 -10.04447
 Alpha  occ. eigenvalues --  -10.04315 -10.03756 -10.00924 -10.00627 -10.00436
 Alpha  occ. eigenvalues --  -10.00419 -10.00292 -10.00239 -10.00170  -9.99858
 Alpha  occ. eigenvalues --   -9.99843  -9.99734  -9.99460  -9.97756  -9.97669
 Alpha  occ. eigenvalues --   -9.97320  -9.97050  -9.96994  -9.96871  -9.96707
 Alpha  occ. eigenvalues --   -9.96684  -9.95898  -9.95877  -7.77300  -7.76915
 Alpha  occ. eigenvalues --   -7.76550  -7.76445  -7.76197  -7.75545  -5.79411
 Alpha  occ. eigenvalues --   -5.79046  -5.78965  -5.78667  -5.78607  -5.78574
 Alpha  occ. eigenvalues --   -5.78516  -5.78316  -5.78212  -5.78136  -5.78079
 Alpha  occ. eigenvalues --   -5.77862  -5.77761  -5.77644  -5.77612  -5.77404
 Alpha  occ. eigenvalues --   -5.77184  -5.76803  -1.18744  -1.18567  -1.18004
 Alpha  occ. eigenvalues --   -0.88813  -0.88246  -0.87788  -0.86553  -0.85751
 Alpha  occ. eigenvalues --   -0.84932  -0.78336  -0.76760  -0.75172  -0.74032
 Alpha  occ. eigenvalues --   -0.73563  -0.73539  -0.72782  -0.72733  -0.71977
 Alpha  occ. eigenvalues --   -0.71081  -0.69150  -0.67553  -0.62869  -0.61884
 Alpha  occ. eigenvalues --   -0.60646  -0.59544  -0.58490  -0.57782  -0.56765
 Alpha  occ. eigenvalues --   -0.55997  -0.55672  -0.54686  -0.54203  -0.53532
 Alpha  occ. eigenvalues --   -0.53257  -0.52353  -0.51138  -0.49017  -0.48640
 Alpha  occ. eigenvalues --   -0.48271  -0.47039  -0.46891  -0.46718  -0.46402
 Alpha  occ. eigenvalues --   -0.46355  -0.46079  -0.45434  -0.43898  -0.42638
 Alpha  occ. eigenvalues --   -0.42212  -0.42079  -0.41764  -0.41678  -0.41598
 Alpha  occ. eigenvalues --   -0.40909  -0.40659  -0.40185  -0.39952  -0.39736
 Alpha  occ. eigenvalues --   -0.39047  -0.38727  -0.38504  -0.38459  -0.38249
 Alpha  occ. eigenvalues --   -0.37632  -0.37318  -0.36953  -0.36278  -0.35356
 Alpha  occ. eigenvalues --   -0.35042  -0.34635  -0.33385  -0.31295  -0.29249
 Alpha  occ. eigenvalues --   -0.28757  -0.28424  -0.28044  -0.27777  -0.27590
 Alpha  occ. eigenvalues --   -0.27277  -0.25706  -0.22979  -0.20555
 Alpha virt. eigenvalues --   -0.06549  -0.04232  -0.01823   0.00232   0.01703
 Alpha virt. eigenvalues --    0.02145   0.02353   0.02553   0.03190   0.03557
 Alpha virt. eigenvalues --    0.04261   0.04692   0.05454   0.05881   0.07110

  Beta  occ. eigenvalues --  -88.17052 -88.16655 -88.16303 -88.16185 -88.15950
  Beta  occ. eigenvalues --  -88.15308 -24.35705 -24.35504 -24.34943 -10.04447
  Beta  occ. eigenvalues --  -10.04315 -10.03756 -10.00924 -10.00627 -10.00436
  Beta  occ. eigenvalues --  -10.00419 -10.00292 -10.00239 -10.00170  -9.99858
  Beta  occ. eigenvalues --   -9.99843  -9.99734  -9.99460  -9.97756  -9.97669
  Beta  occ. eigenvalues --   -9.97320  -9.97050  -9.96994  -9.96871  -9.96707
  Beta  occ. eigenvalues --   -9.96684  -9.95898  -9.95877  -7.77300  -7.76915
  Beta  occ. eigenvalues --   -7.76550  -7.76445  -7.76197  -7.75545  -5.79411
  Beta  occ. eigenvalues --   -5.79046  -5.78965  -5.78667  -5.78607  -5.78574
  Beta  occ. eigenvalues --   -5.78516  -5.78316  -5.78212  -5.78136  -5.78079
  Beta  occ. eigenvalues --   -5.77862  -5.77761  -5.77644  -5.77612  -5.77404
  Beta  occ. eigenvalues --   -5.77184  -5.76803  -1.18744  -1.18567  -1.18004
  Beta  occ. eigenvalues --   -0.88813  -0.88246  -0.87788  -0.86553  -0.85751
  Beta  occ. eigenvalues --   -0.84932  -0.78336  -0.76760  -0.75172  -0.74032
  Beta  occ. eigenvalues --   -0.73563  -0.73539  -0.72782  -0.72733  -0.71977
  Beta  occ. eigenvalues --   -0.71081  -0.69150  -0.67553  -0.62869  -0.61884
  Beta  occ. eigenvalues --   -0.60646  -0.59544  -0.58490  -0.57782  -0.56765
  Beta  occ. eigenvalues --   -0.55997  -0.55672  -0.54686  -0.54203  -0.53532
  Beta  occ. eigenvalues --   -0.53257  -0.52353  -0.51138  -0.49017  -0.48640
  Beta  occ. eigenvalues --   -0.48271  -0.47039  -0.46891  -0.46718  -0.46402
  Beta  occ. eigenvalues --   -0.46355  -0.46079  -0.45434  -0.43898  -0.42638
  Beta  occ. eigenvalues --   -0.42212  -0.42079  -0.41764  -0.41678  -0.41598
  Beta  occ. eigenvalues --   -0.40909  -0.40659  -0.40185  -0.39952  -0.39736
  Beta  occ. eigenvalues --   -0.39047  -0.38727  -0.38504  -0.38459  -0.38249
  Beta  occ. eigenvalues --   -0.37632  -0.37318  -0.36953  -0.36278  -0.35356
  Beta  occ. eigenvalues --   -0.35042  -0.34635  -0.33385  -0.31295  -0.29249
  Beta  occ. eigenvalues --   -0.28757  -0.28424  -0.28044  -0.27777  -0.27590
  Beta  occ. eigenvalues --   -0.27277  -0.25706  -0.22979  -0.20555
  Beta virt. eigenvalues --   -0.06549  -0.04232  -0.01823   0.00232   0.01703
  Beta virt. eigenvalues --    0.02145   0.02353   0.02553   0.03190   0.03557
  Beta virt. eigenvalues --    0.04261   0.04692   0.05454   0.05881   0.07110

 Mulliken charges and spin densities:
               1          2
     1  C   -0.125857  -0.000000
     2  C    0.078242   0.000000
     3  C    0.005568   0.000000
     4  C   -0.104102  -0.000000
     5  S    0.152305  -0.000000
     6  C   -0.092210  -0.000000
     7  C    0.107177   0.000000
     8  F   -0.117297   0.000000
     9  C    0.044275  -0.000000
    10  C   -0.093535   0.000000
    11  S    0.135104   0.000000
    12  C   -0.094190  -0.000000
    13  C    0.036755  -0.000000
    14  C    0.038533  -0.000000
    15  C   -0.088659   0.000000
    16  S    0.146486  -0.000000
    17  C   -0.108030  -0.000000
    18  C    0.105714   0.000000
    19  F   -0.115277  -0.000000
    20  C    0.047729  -0.000000
    21  C   -0.089815   0.000000
    22  S    0.137121   0.000000
    23  C   -0.097672   0.000000
    24  C    0.034654   0.000000
    25  C    0.041912  -0.000000
    26  C   -0.072511   0.000000
    27  S    0.148132  -0.000000
    28  C   -0.126765  -0.000000
    29  C    0.088102   0.000000
    30  F   -0.117151   0.000000
    31  C    0.082792   0.000000
    32  C   -0.116286  -0.000000
    33  S    0.155631  -0.000000
    34  H    0.019727   0.000000
    35  H   -0.015476  -0.000000
    36  H   -0.013167   0.000000
    37  H   -0.000517  -0.000000
    38  H   -0.011447  -0.000000
    39  H   -0.013921  -0.000000
    40  H    0.000933  -0.000000
    41  H   -0.010483  -0.000000
    42  H   -0.013827  -0.000000
    43  H    0.001424  -0.000000
    44  H    0.029879  -0.000000
 Sum of Mulliken charges =  -0.00000  -0.00000

 Dipole moment (field-independent basis, Debye):
    X=              3.6352    Y=             -2.3322    Z=              0.0005  Tot=              4.3190
 Quadrupole moment (field-independent basis, Debye-Ang):
   XX=           -168.9938   YY=           -214.1829   ZZ=           -237.3492
   XY=              5.5789   XZ=              0.0074   YZ=             -0.0006

 Normal termination of Gaussian 16 at Thu Jul 23 21:04:02 2020.
