 Gaussian 16, Revision A.03,
 Gaussian 16:  EM64L-G16RevA.03 25-Dec-2016

 ---------------------------------------------------------------
 #P uLC-wPBE/cc-pVDZ iop(3/107=0163900000, 3/108=0163900000) opt
 ---------------------------------------------------------------

 -----------
 H7 C9 S1 N1
 -----------
 Symbolic Z-matrix:
 Charge =  0 Multiplicity = 1

 SCF Done:  E(ULC-wPBE) =  -799.589721185     A.U. after   16 cycles
 SCF Done:  E(ULC-wPBE) =  -799.614156388     A.U. after   14 cycles
 SCF Done:  E(ULC-wPBE) =  -799.617267021     A.U. after   14 cycles
 SCF Done:  E(ULC-wPBE) =  -799.617434030     A.U. after   13 cycles
 SCF Done:  E(ULC-wPBE) =  -799.617488696     A.U. after   12 cycles
 SCF Done:  E(ULC-wPBE) =  -799.617498462     A.U. after   10 cycles
 SCF Done:  E(ULC-wPBE) =  -799.617500629     A.U. after    9 cycles
 SCF Done:  E(ULC-wPBE) =  -799.617501164     A.U. after    8 cycles
 Optimization completed.
    -- Stationary point found.

                         Standard orientation:
 ---------------------------------------------------------------------
 Center     Atomic      Atomic             Coordinates (Angstroms)
 Number     Number       Type             X           Y           Z
 ---------------------------------------------------------------------
      1          6           0       -3.492855   -0.059277   -0.000141
      2          6           0       -2.726582   -1.232233    0.001513
      3          6           0       -1.329771   -1.159852    0.001529
      4          6           0       -0.680018    0.088915    0.000236
      5          6           0       -1.457219    1.264648   -0.001344
      6          6           0       -2.852401    1.187947   -0.001543
      7          6           0        0.790255    0.211954    0.000458
      8          7           0        1.427433    1.362989    0.001868
      9          6           0        2.787168    1.176811    0.001443
     10          6           0        3.219259   -0.128253   -0.000245
     11         16           0        1.856485   -1.194050   -0.001665
     12          1           0       -4.590009   -0.117718   -0.000225
     13          1           0       -3.219885   -2.213766    0.002815
     14          1           0       -0.740514   -2.088426    0.003070
     15          1           0       -0.936986    2.230817   -0.002329
     16          1           0       -3.447094    2.111915   -0.002772
     17          1           0        3.448856    2.051797    0.002622
     18          1           0        4.242822   -0.514716   -0.001049
 ---------------------------------------------------------------------

 The electronic state is 1-A.
 Alpha  occ. eigenvalues --  -88.20014 -14.09266 -10.05722 -10.02586 -10.02358
 Alpha  occ. eigenvalues --  -10.01476 -10.00434 -10.00172 -10.00101  -9.99979
 Alpha  occ. eigenvalues --   -9.99777  -7.80384  -5.82388  -5.81964  -5.81631
 Alpha  occ. eigenvalues --   -0.97737  -0.87989  -0.82488  -0.80336  -0.77312
 Alpha  occ. eigenvalues --   -0.74569  -0.65806  -0.64725  -0.61322  -0.58935
 Alpha  occ. eigenvalues --   -0.55543  -0.52872  -0.49889  -0.49423  -0.46783
 Alpha  occ. eigenvalues --   -0.46320  -0.45820  -0.44871  -0.42211  -0.41353
 Alpha  occ. eigenvalues --   -0.39198  -0.38553  -0.34573  -0.33289  -0.31712
 Alpha  occ. eigenvalues --   -0.31265  -0.27683
 Alpha virt. eigenvalues --   -0.01083   0.03310   0.06062   0.07042   0.10192
 Alpha virt. eigenvalues --    0.11181   0.13212   0.14601   0.15449   0.17298
 Alpha virt. eigenvalues --    0.18209   0.19848   0.20306   0.21133   0.26267

  Beta  occ. eigenvalues --  -88.20014 -14.09266 -10.05722 -10.02586 -10.02358
  Beta  occ. eigenvalues --  -10.01476 -10.00434 -10.00172 -10.00101  -9.99979
  Beta  occ. eigenvalues --   -9.99777  -7.80384  -5.82388  -5.81964  -5.81631
  Beta  occ. eigenvalues --   -0.97737  -0.87989  -0.82488  -0.80336  -0.77312
  Beta  occ. eigenvalues --   -0.74569  -0.65806  -0.64725  -0.61322  -0.58935
  Beta  occ. eigenvalues --   -0.55543  -0.52872  -0.49889  -0.49423  -0.46783
  Beta  occ. eigenvalues --   -0.46320  -0.45820  -0.44871  -0.42211  -0.41353
  Beta  occ. eigenvalues --   -0.39198  -0.38553  -0.34573  -0.33289  -0.31712
  Beta  occ. eigenvalues --   -0.31265  -0.27683
  Beta virt. eigenvalues --   -0.01083   0.03310   0.06062   0.07042   0.10192
  Beta virt. eigenvalues --    0.11181   0.13212   0.14601   0.15449   0.17298
  Beta virt. eigenvalues --    0.18209   0.19848   0.20306   0.21133   0.26267

 Mulliken charges and spin densities:
               1          2
     1  C    0.027256  -0.000000
     2  C    0.031922   0.000000
     3  C   -0.016165   0.000000
     4  C    0.025297  -0.000000
     5  C    0.041788   0.000000
     6  C    0.036559  -0.000000
     7  C   -0.014047   0.000000
     8  N   -0.182558  -0.000000
     9  C    0.127817   0.000000
    10  C   -0.161094  -0.000000
    11  S    0.136742   0.000000
    12  H   -0.016274  -0.000000
    13  H   -0.015588  -0.000000
    14  H   -0.017610  -0.000000
    15  H   -0.018747  -0.000000
    16  H   -0.013164  -0.000000
    17  H    0.001960  -0.000000
    18  H    0.025907  -0.000000
 Sum of Mulliken charges =  -0.00000   0.00000

 Dipole moment (field-independent basis, Debye):
    X=              0.1725    Y=             -0.9362    Z=             -0.0015  Tot=              0.9520
 Quadrupole moment (field-independent basis, Debye-Ang):
   XX=            -56.5328   YY=            -66.9604   ZZ=            -74.6417
   XY=             -0.3244   XZ=             -0.0012   YZ=             -0.0097

 Normal termination of Gaussian 16 at Fri Jul 24 16:49:58 2020.
