 Gaussian 16, Revision A.03,
 Gaussian 16:  EM64L-G16RevA.03 25-Dec-2016

 ---------------------------------------------------------------
 #P uLC-wPBE/cc-pVDZ iop(3/107=0246900000, 3/108=0246900000) opt
 ---------------------------------------------------------------

 ----------------
 H26 C36 N3 O3 F3
 ----------------
 Symbolic Z-matrix:
 Charge =  0 Multiplicity = 1

 SCF Done:  E(ULC-wPBE) =  -2075.19119836     A.U. after   17 cycles
 SCF Done:  E(ULC-wPBE) =  -2075.26540873     A.U. after   15 cycles
 SCF Done:  E(ULC-wPBE) =  -2075.31324087     A.U. after   15 cycles
 SCF Done:  E(ULC-wPBE) =  -2075.32477380     A.U. after   15 cycles
 SCF Done:  E(ULC-wPBE) =  -2075.32765563     A.U. after   14 cycles
 SCF Done:  E(ULC-wPBE) =  -2075.33003475     A.U. after   16 cycles
 SCF Done:  E(ULC-wPBE) =  -2075.33320698     A.U. after   17 cycles
 SCF Done:  E(ULC-wPBE) =  -2075.33615309     A.U. after   17 cycles
 SCF Done:  E(ULC-wPBE) =  -2075.33780859     A.U. after   15 cycles
 SCF Done:  E(ULC-wPBE) =  -2075.33810776     A.U. after   13 cycles
 SCF Done:  E(ULC-wPBE) =  -2075.33845338     A.U. after   13 cycles
 SCF Done:  E(ULC-wPBE) =  -2075.33858434     A.U. after   13 cycles
 SCF Done:  E(ULC-wPBE) =  -2075.33864740     A.U. after   12 cycles
 SCF Done:  E(ULC-wPBE) =  -2075.33867202     A.U. after   11 cycles
 SCF Done:  E(ULC-wPBE) =  -2075.33867946     A.U. after   11 cycles
 SCF Done:  E(ULC-wPBE) =  -2075.33868318     A.U. after   10 cycles
 SCF Done:  E(ULC-wPBE) =  -2075.33868438     A.U. after    8 cycles
 SCF Done:  E(ULC-wPBE) =  -2075.33868499     A.U. after    8 cycles
 SCF Done:  E(ULC-wPBE) =  -2075.33868512     A.U. after    7 cycles
 SCF Done:  E(ULC-wPBE) =  -2075.33868512     A.U. after    6 cycles
 Optimization completed.
    -- Stationary point found.

                         Standard orientation:
 ---------------------------------------------------------------------
 Center     Atomic      Atomic             Coordinates (Angstroms)
 Number     Number       Type             X           Y           Z
 ---------------------------------------------------------------------
      1          6           0      -12.223897   -0.128117   -0.338125
      2          6           0      -11.560428    1.050779   -0.676250
      3          6           0      -10.172688    1.046854   -0.637816
      4          9           0       -9.507897    2.154477   -1.018711
      5          6           0       -9.465157   -0.100740   -0.246990
      6          7           0      -10.118413   -1.237345    0.046102
      7          6           0      -11.455606   -1.243192    0.000464
      8          6           0       -7.976807   -0.148756   -0.212555
      9          6           0       -7.315799   -1.216756   -0.823639
     10          6           0       -5.924371   -1.312051   -0.822472
     11          6           0       -5.158307   -0.327547   -0.185603
     12          6           0       -5.809698    0.735140    0.462415
     13          6           0       -7.206815    0.823611    0.462913
     14          8           0       -7.905098    1.784871    1.124923
     15          6           0       -7.176716    2.818920    1.764611
     16          6           0       -3.673443   -0.398671   -0.181426
     17          6           0       -2.993231   -1.609927   -0.004511
     18          6           0       -1.606497   -1.601103   -0.008796
     19          9           0       -0.952629   -2.772960    0.107087
     20          6           0       -0.889637   -0.404407   -0.157493
     21          7           0       -1.545733    0.748997   -0.365809
     22          6           0       -2.881053    0.744015   -0.377479
     23          6           0        0.597911   -0.352227   -0.174561
     24          6           0        1.243430    0.357960   -1.189757
     25          6           0        2.634223    0.437961   -1.255235
     26          6           0        3.416427   -0.193025   -0.279518
     27          6           0        2.781317   -0.882904    0.766565
     28          6           0        1.384830   -0.955634    0.831264
     29          8           0        0.703190   -1.546274    1.849425
     30          6           0        1.447219   -2.227227    2.845145
     31          6           0        4.900841   -0.134383   -0.334323
     32          6           0        5.580207    1.035912   -0.695443
     33          6           0        6.966451    1.018876   -0.722474
     34          9           0        7.618176    2.128505   -1.121021
     35          6           0        7.685175   -0.133277   -0.369625
     36          7           0        7.028962   -1.263781   -0.061088
     37          6           0        5.693427   -1.257337   -0.047761
     38          6           0        9.173083   -0.193207   -0.393770
     39          6           0        9.799242   -1.258400   -1.047232
     40          6           0       11.190965   -1.360023   -1.103090
     41          6           0       11.968605   -0.383724   -0.482217
     42          6           0       11.368079    0.675205    0.205537
     43          6           0        9.971157    0.769346    0.263465
     44          8           0        9.299172    1.728983    0.958184
     45          6           0       10.055425    2.754879    1.575465
     46          1           0      -13.318387   -0.183542   -0.350720
     47          1           0      -12.089433    1.960817   -0.981107
     48          1           0      -11.939108   -2.198368    0.250591
     49          1           0       -7.924750   -1.983454   -1.316151
     50          1           0       -5.432580   -2.141601   -1.343351
     51          1           0       -5.209594    1.473237    1.003049
     52          1           0       -6.547819    3.380685    1.045631
     53          1           0       -6.536821    2.426903    2.580341
     54          1           0       -7.930427    3.498164    2.193281
     55          1           0       -3.522899   -2.558204    0.141880
     56          1           0       -3.361112    1.713413   -0.575189
     57          1           0        0.622191    0.849968   -1.946871
     58          1           0        3.112883    0.970155   -2.085300
     59          1           0        3.394497   -1.329583    1.555027
     60          1           0        0.704296   -2.662039    3.532351
     61          1           0        2.104277   -1.537095    3.411390
     62          1           0        2.061322   -3.041171    2.411115
     63          1           0        5.050167    1.960818   -0.950139
     64          1           0        5.213163   -2.217802    0.189435
     65          1           0        9.162031   -2.016140   -1.517916
     66          1           0       11.662766   -2.196594   -1.630884
     67          1           0       13.063417   -0.443156   -0.519246
     68          1           0       11.997182    1.417971    0.705505
     69          1           0       10.655219    3.322739    0.836284
     70          1           0        9.322520    3.432190    2.042159
     71          1           0       10.729142    2.354800    2.359852
 ---------------------------------------------------------------------

 The electronic state is 1-A.
 Alpha  occ. eigenvalues --  -24.42664 -24.42449 -24.42112 -18.94105 -18.93904
 Alpha  occ. eigenvalues --  -18.93427 -14.14021 -14.13903 -14.13541 -10.12672
 Alpha  occ. eigenvalues --  -10.12463 -10.12111 -10.10529 -10.10319 -10.09697
 Alpha  occ. eigenvalues --  -10.09584 -10.09391 -10.09094 -10.08654 -10.08380
 Alpha  occ. eigenvalues --  -10.08005 -10.07319 -10.07097 -10.06777 -10.06366
 Alpha  occ. eigenvalues --  -10.06359 -10.06044 -10.06016 -10.05966 -10.05788
 Alpha  occ. eigenvalues --  -10.05754 -10.05660 -10.04976 -10.04781 -10.04539
 Alpha  occ. eigenvalues --  -10.04410 -10.04329 -10.04209 -10.04188 -10.04034
 Alpha  occ. eigenvalues --  -10.03920 -10.03702 -10.03692 -10.03595 -10.02981
 Alpha  occ. eigenvalues --   -1.26668  -1.26450  -1.26106  -1.12943  -1.12742
 Alpha  occ. eigenvalues --   -1.12246  -1.01429  -1.01355  -1.00995  -0.93712
 Alpha  occ. eigenvalues --   -0.93280  -0.91998  -0.89463  -0.88580  -0.87968
 Alpha  occ. eigenvalues --   -0.86055  -0.85639  -0.84875  -0.83022  -0.82797
 Alpha  occ. eigenvalues --   -0.82485  -0.81946  -0.80952  -0.79602  -0.77670
 Alpha  occ. eigenvalues --   -0.77219  -0.76530  -0.74298  -0.72504  -0.71927
 Alpha  occ. eigenvalues --   -0.71167  -0.70944  -0.69930  -0.67710  -0.67677
 Alpha  occ. eigenvalues --   -0.67268  -0.66429  -0.66175  -0.65946  -0.63033
 Alpha  occ. eigenvalues --   -0.62565  -0.61878  -0.61271  -0.60088  -0.59918
 Alpha  occ. eigenvalues --   -0.59381  -0.59099  -0.58714  -0.57927  -0.57825
 Alpha  occ. eigenvalues --   -0.57617  -0.56337  -0.56005  -0.55635  -0.55231
 Alpha  occ. eigenvalues --   -0.55031  -0.54823  -0.54494  -0.54418  -0.53665
 Alpha  occ. eigenvalues --   -0.53504  -0.53377  -0.53107  -0.52183  -0.51859
 Alpha  occ. eigenvalues --   -0.51410  -0.51028  -0.50074  -0.49597  -0.49255
 Alpha  occ. eigenvalues --   -0.49131  -0.48973  -0.48644  -0.48434  -0.47985
 Alpha  occ. eigenvalues --   -0.47725  -0.47485  -0.47379  -0.47168  -0.46583
 Alpha  occ. eigenvalues --   -0.46325  -0.46054  -0.45707  -0.45662  -0.45029
 Alpha  occ. eigenvalues --   -0.44125  -0.43691  -0.43417  -0.43250  -0.43068
 Alpha  occ. eigenvalues --   -0.42515  -0.41163  -0.40927  -0.40283  -0.40127
 Alpha  occ. eigenvalues --   -0.39890  -0.39377  -0.38203  -0.37383  -0.36710
 Alpha  occ. eigenvalues --   -0.34878  -0.34539  -0.34051  -0.33462  -0.33313
 Alpha  occ. eigenvalues --   -0.32943  -0.32577  -0.31627  -0.31146  -0.29906
 Alpha  occ. eigenvalues --   -0.29163  -0.28192
 Alpha virt. eigenvalues --   -0.00064   0.01632   0.03330   0.04378   0.04639
 Alpha virt. eigenvalues --    0.05171   0.06204   0.06437   0.06715   0.07545
 Alpha virt. eigenvalues --    0.08683   0.10204   0.13374   0.13595   0.13712

  Beta  occ. eigenvalues --  -24.42664 -24.42449 -24.42112 -18.94105 -18.93904
  Beta  occ. eigenvalues --  -18.93427 -14.14021 -14.13903 -14.13541 -10.12672
  Beta  occ. eigenvalues --  -10.12463 -10.12111 -10.10529 -10.10319 -10.09697
  Beta  occ. eigenvalues --  -10.09584 -10.09391 -10.09094 -10.08654 -10.08380
  Beta  occ. eigenvalues --  -10.08005 -10.07319 -10.07097 -10.06777 -10.06366
  Beta  occ. eigenvalues --  -10.06359 -10.06044 -10.06016 -10.05966 -10.05788
  Beta  occ. eigenvalues --  -10.05754 -10.05660 -10.04976 -10.04781 -10.04539
  Beta  occ. eigenvalues --  -10.04410 -10.04329 -10.04209 -10.04188 -10.04034
  Beta  occ. eigenvalues --  -10.03920 -10.03702 -10.03692 -10.03595 -10.02981
  Beta  occ. eigenvalues --   -1.26668  -1.26450  -1.26106  -1.12943  -1.12742
  Beta  occ. eigenvalues --   -1.12246  -1.01429  -1.01355  -1.00995  -0.93712
  Beta  occ. eigenvalues --   -0.93280  -0.91998  -0.89463  -0.88580  -0.87968
  Beta  occ. eigenvalues --   -0.86055  -0.85639  -0.84875  -0.83022  -0.82797
  Beta  occ. eigenvalues --   -0.82485  -0.81946  -0.80952  -0.79602  -0.77670
  Beta  occ. eigenvalues --   -0.77219  -0.76530  -0.74298  -0.72504  -0.71927
  Beta  occ. eigenvalues --   -0.71167  -0.70944  -0.69930  -0.67710  -0.67677
  Beta  occ. eigenvalues --   -0.67268  -0.66429  -0.66175  -0.65946  -0.63033
  Beta  occ. eigenvalues --   -0.62565  -0.61878  -0.61271  -0.60088  -0.59918
  Beta  occ. eigenvalues --   -0.59381  -0.59099  -0.58714  -0.57927  -0.57825
  Beta  occ. eigenvalues --   -0.57617  -0.56337  -0.56005  -0.55635  -0.55231
  Beta  occ. eigenvalues --   -0.55031  -0.54823  -0.54494  -0.54418  -0.53665
  Beta  occ. eigenvalues --   -0.53504  -0.53377  -0.53107  -0.52183  -0.51859
  Beta  occ. eigenvalues --   -0.51410  -0.51028  -0.50074  -0.49597  -0.49255
  Beta  occ. eigenvalues --   -0.49131  -0.48973  -0.48644  -0.48434  -0.47985
  Beta  occ. eigenvalues --   -0.47725  -0.47485  -0.47379  -0.47168  -0.46583
  Beta  occ. eigenvalues --   -0.46325  -0.46054  -0.45707  -0.45662  -0.45029
  Beta  occ. eigenvalues --   -0.44125  -0.43691  -0.43417  -0.43250  -0.43068
  Beta  occ. eigenvalues --   -0.42515  -0.41163  -0.40927  -0.40283  -0.40127
  Beta  occ. eigenvalues --   -0.39890  -0.39377  -0.38203  -0.37383  -0.36710
  Beta  occ. eigenvalues --   -0.34878  -0.34539  -0.34051  -0.33462  -0.33313
  Beta  occ. eigenvalues --   -0.32943  -0.32577  -0.31627  -0.31146  -0.29906
  Beta  occ. eigenvalues --   -0.29163  -0.28192
  Beta virt. eigenvalues --   -0.00064   0.01632   0.03330   0.04378   0.04639
  Beta virt. eigenvalues --    0.05171   0.06204   0.06437   0.06715   0.07545
  Beta virt. eigenvalues --    0.08683   0.10204   0.13374   0.13595   0.13712

 Mulliken charges and spin densities:
               1          2
     1  C   -0.025702  -0.000000
     2  C    0.053656   0.000000
     3  C    0.125907   0.000000
     4  F   -0.118699   0.000000
     5  C    0.002523  -0.000000
     6  N   -0.178079   0.000000
     7  C    0.078521   0.000000
     8  C   -0.001740  -0.000000
     9  C    0.060795   0.000000
    10  C    0.000795  -0.000000
    11  C    0.013978  -0.000000
    12  C   -0.036652  -0.000000
    13  C    0.119715   0.000000
    14  O   -0.238913  -0.000000
    15  C    0.061645  -0.000000
    16  C   -0.051231  -0.000000
    17  C    0.062283   0.000000
    18  C    0.131942  -0.000000
    19  F   -0.118009   0.000000
    20  C    0.004946  -0.000000
    21  N   -0.176253   0.000000
    22  C    0.078156   0.000000
    23  C   -0.003345   0.000000
    24  C    0.059532   0.000000
    25  C    0.000907  -0.000000
    26  C    0.014238  -0.000000
    27  C   -0.036475  -0.000000
    28  C    0.117722   0.000000
    29  O   -0.238954   0.000000
    30  C    0.061663   0.000000
    31  C   -0.051650   0.000000
    32  C    0.061355   0.000000
    33  C    0.132302  -0.000000
    34  F   -0.118982  -0.000000
    35  C    0.008485  -0.000000
    36  N   -0.175442   0.000000
    37  C    0.077051  -0.000000
    38  C   -0.015875   0.000000
    39  C    0.048607  -0.000000
    40  C    0.018699  -0.000000
    41  C    0.025165   0.000000
    42  C   -0.037579   0.000000
    43  C    0.110351  -0.000000
    44  O   -0.239480   0.000000
    45  C    0.060946   0.000000
    46  H   -0.000331   0.000000
    47  H    0.009446   0.000000
    48  H    0.006859  -0.000000
    49  H   -0.021116  -0.000000
    50  H   -0.022380  -0.000000
    51  H   -0.014799   0.000000
    52  H    0.046834   0.000000
    53  H    0.048304   0.000000
    54  H    0.052823   0.000000
    55  H    0.001129  -0.000000
    56  H    0.000835  -0.000000
    57  H   -0.021327   0.000000
    58  H   -0.022788  -0.000000
    59  H   -0.014903  -0.000000
    60  H    0.052874  -0.000000
    61  H    0.047764   0.000000
    62  H    0.046943  -0.000000
    63  H   -0.000153   0.000000
    64  H    0.000201  -0.000000
    65  H   -0.022845  -0.000000
    66  H   -0.016841  -0.000000
    67  H   -0.013989   0.000000
    68  H   -0.012344  -0.000000
    69  H    0.045200   0.000000
    70  H    0.051730   0.000000
    71  H    0.044046  -0.000000
 Sum of Mulliken charges =  -0.00000  -0.00000

 Dipole moment (field-independent basis, Debye):
    X=             -2.1193    Y=              2.0825    Z=              2.2584  Tot=              3.7321
 Quadrupole moment (field-independent basis, Debye-Ang):
   XX=           -198.7147   YY=           -239.9386   ZZ=           -245.6090
   XY=              2.9106   XZ=              9.6124   YZ=              5.2716

 Normal termination of Gaussian 16 at Thu Jul 23 22:24:10 2020.
