 Gaussian 16, Revision A.03,
 Gaussian 16:  EM64L-G16RevA.03 25-Dec-2016

 ---------------------------------------------------------------
 #P uLC-wPBE/cc-pVDZ iop(3/107=0209900000, 3/108=0209900000) opt
 ---------------------------------------------------------------

 -------------
 H26 C33 S3 O3
 -------------
 Symbolic Z-matrix:
 Charge =  0 Multiplicity = 1

 SCF Done:  E(ULC-wPBE) =  -2691.60992414     A.U. after   17 cycles
 SCF Done:  E(ULC-wPBE) =  -2691.67508267     A.U. after   15 cycles
 SCF Done:  E(ULC-wPBE) =  -2691.72398029     A.U. after   16 cycles
 SCF Done:  E(ULC-wPBE) =  -2691.72770938     A.U. after   15 cycles
 SCF Done:  E(ULC-wPBE) =  -2691.72933041     A.U. after   15 cycles
 SCF Done:  E(ULC-wPBE) =  -2691.73015815     A.U. after   15 cycles
 SCF Done:  E(ULC-wPBE) =  -2691.73071010     A.U. after   13 cycles
 SCF Done:  E(ULC-wPBE) =  -2691.73087130     A.U. after   13 cycles
 SCF Done:  E(ULC-wPBE) =  -2691.73091591     A.U. after   13 cycles
 SCF Done:  E(ULC-wPBE) =  -2691.73093935     A.U. after   13 cycles
 SCF Done:  E(ULC-wPBE) =  -2691.73094600     A.U. after   12 cycles
 SCF Done:  E(ULC-wPBE) =  -2691.73094749     A.U. after    8 cycles
 SCF Done:  E(ULC-wPBE) =  -2691.73094805     A.U. after   10 cycles
 SCF Done:  E(ULC-wPBE) =  -2691.73094808     A.U. after    7 cycles
 SCF Done:  E(ULC-wPBE) =  -2691.73094834     A.U. after   10 cycles
 SCF Done:  E(ULC-wPBE) =  -2691.73094849     A.U. after    8 cycles
 SCF Done:  E(ULC-wPBE) =  -2691.73094855     A.U. after    7 cycles
 Optimization completed.
    -- Stationary point found.

                         Standard orientation:
 ---------------------------------------------------------------------
 Center     Atomic      Atomic             Coordinates (Angstroms)
 Number     Number       Type             X           Y           Z
 ---------------------------------------------------------------------
      1          6           0       11.727370    0.821101    0.287512
      2          6           0       10.728916    1.738421   -0.057068
      3          6           0        9.398916    1.326697   -0.159234
      4          6           0        9.029049   -0.011420    0.090223
      5          6           0       10.045198   -0.925660    0.438490
      6          6           0       11.375898   -0.510484    0.531759
      7          6           0        7.620288   -0.431245   -0.000941
      8          6           0        7.077832   -1.693775   -0.221954
      9          8           0        7.889958   -2.778764   -0.391641
     10          6           0        7.253859   -4.006968   -0.715587
     11          6           0        5.649953   -1.706639   -0.267107
     12          6           0        5.092798   -0.457749   -0.075082
     13         16           0        6.331322    0.732264    0.176469
     14          6           0        3.666501   -0.092638   -0.049444
     15          6           0        3.223129    1.187534   -0.429125
     16          6           0        1.870648    1.524608   -0.410588
     17          6           0        0.894267    0.587561   -0.012539
     18          6           0        1.342027   -0.694031    0.371921
     19          6           0        2.694059   -1.026805    0.355404
     20          6           0       -0.537449    0.921184   -0.003076
     21          6           0       -1.165140    2.163769    0.035823
     22          8           0       -0.429077    3.312720    0.071478
     23          6           0       -1.149775    4.529801    0.209526
     24          6           0       -2.591357    2.087530    0.054206
     25          6           0       -3.062800    0.789982    0.023399
     26         16           0       -1.745791   -0.338706   -0.043559
     27          6           0       -4.461813    0.330323    0.023162
     28          6           0       -4.830506   -0.913094    0.569640
     29          6           0       -6.159438   -1.330209    0.573310
     30          6           0       -7.183373   -0.526629    0.031152
     31          6           0       -6.812523    0.719226   -0.516166
     32          6           0       -5.481510    1.133176   -0.521169
     33          6           0       -8.582370   -0.983271    0.028196
     34          6           0       -9.759218   -0.244034   -0.055480
     35          8           0       -9.719995    1.116525   -0.162758
     36          6           0      -10.969030    1.794138   -0.140028
     37          6           0      -10.945251   -1.045735   -0.006868
     38          6           0      -10.659432   -2.384191    0.105666
     39         16           0       -8.966530   -2.682636    0.149628
     40          1           0       12.774190    1.142651    0.363482
     41          1           0       10.987556    2.786565   -0.257430
     42          1           0        8.630952    2.055960   -0.451203
     43          1           0        9.780594   -1.969034    0.637175
     44          1           0       12.148829   -1.241084    0.805432
     45          1           0        8.062894   -4.745997   -0.840876
     46          1           0        6.576656   -4.345815    0.095965
     47          1           0        6.679622   -3.933132   -1.662158
     48          1           0        5.044465   -2.594932   -0.468376
     49          1           0        3.954213    1.933343   -0.769653
     50          1           0        1.557738    2.526602   -0.719475
     51          1           0        0.615965   -1.443005    0.715862
     52          1           0        3.006128   -2.023516    0.692744
     53          1           0       -1.744346    4.548272    1.146013
     54          1           0       -1.823182    4.708047   -0.654441
     55          1           0       -0.392118    5.330264    0.246749
     56          1           0       -3.257115    2.952431    0.122892
     57          1           0       -4.064404   -1.555236    1.024516
     58          1           0       -6.410213   -2.297333    1.029468
     59          1           0       -7.582131    1.362463   -0.954031
     60          1           0       -5.223004    2.094067   -0.984748
     61          1           0      -10.733637    2.870015   -0.197931
     62          1           0      -11.525275    1.594063    0.798898
     63          1           0      -11.603317    1.515428   -1.007066
     64          1           0      -11.965615   -0.654760   -0.052977
     65          1           0      -11.364889   -3.217770    0.156312
 ---------------------------------------------------------------------

 The electronic state is 1-A.
 Alpha  occ. eigenvalues --  -88.21917 -88.21403 -88.20963 -18.92489 -18.92151
 Alpha  occ. eigenvalues --  -18.91684 -10.08079 -10.07951 -10.07752 -10.07594
 Alpha  occ. eigenvalues --  -10.07260 -10.07225 -10.05374 -10.05072 -10.04907
 Alpha  occ. eigenvalues --  -10.04512 -10.04152 -10.03826 -10.03666 -10.03617
 Alpha  occ. eigenvalues --  -10.03448 -10.03211 -10.02876 -10.02872 -10.02305
 Alpha  occ. eigenvalues --  -10.02269 -10.02238 -10.02223 -10.01970 -10.01875
 Alpha  occ. eigenvalues --  -10.01843 -10.01841 -10.01785 -10.01413 -10.01249
 Alpha  occ. eigenvalues --  -10.01193 -10.01129 -10.01060 -10.00794  -7.82303
 Alpha  occ. eigenvalues --   -7.81788  -7.81346  -5.84301  -5.83833  -5.83793
 Alpha  occ. eigenvalues --   -5.83435  -5.83350  -5.83329  -5.82900  -5.82887
 Alpha  occ. eigenvalues --   -5.82461  -1.10786  -1.10457  -1.09993  -0.93724
 Alpha  occ. eigenvalues --   -0.93399  -0.93092  -0.90600  -0.89861  -0.88948
 Alpha  occ. eigenvalues --   -0.84512  -0.83003  -0.81060  -0.80565  -0.80377
 Alpha  occ. eigenvalues --   -0.79779  -0.79430  -0.79147  -0.78466  -0.78075
 Alpha  occ. eigenvalues --   -0.77071  -0.76227  -0.74569  -0.73569  -0.72013
 Alpha  occ. eigenvalues --   -0.68766  -0.67214  -0.66529  -0.66447  -0.65343
 Alpha  occ. eigenvalues --   -0.64542  -0.62823  -0.61928  -0.61423  -0.60966
 Alpha  occ. eigenvalues --   -0.60900  -0.60368  -0.59844  -0.59338  -0.58694
 Alpha  occ. eigenvalues --   -0.54793  -0.54447  -0.54006  -0.53619  -0.53366
 Alpha  occ. eigenvalues --   -0.53235  -0.52865  -0.52652  -0.51797  -0.51602
 Alpha  occ. eigenvalues --   -0.51241  -0.50662  -0.50369  -0.49865  -0.49314
 Alpha  occ. eigenvalues --   -0.48874  -0.48340  -0.47993  -0.47757  -0.47563
 Alpha  occ. eigenvalues --   -0.47222  -0.46916  -0.46795  -0.46502  -0.46136
 Alpha  occ. eigenvalues --   -0.45568  -0.45179  -0.45134  -0.43744  -0.43529
 Alpha  occ. eigenvalues --   -0.42770  -0.42660  -0.42366  -0.41961  -0.41551
 Alpha  occ. eigenvalues --   -0.40876  -0.40664  -0.39901  -0.39581  -0.39399
 Alpha  occ. eigenvalues --   -0.39314  -0.38888  -0.38657  -0.38493  -0.38153
 Alpha  occ. eigenvalues --   -0.37736  -0.36135  -0.34764  -0.32911  -0.32493
 Alpha  occ. eigenvalues --   -0.32110  -0.31361  -0.30924  -0.30277  -0.29795
 Alpha  occ. eigenvalues --   -0.27846  -0.25924  -0.23899
 Alpha virt. eigenvalues --   -0.01128   0.01184   0.03813   0.04685   0.05158
 Alpha virt. eigenvalues --    0.05964   0.06196   0.08178   0.09302   0.09567
 Alpha virt. eigenvalues --    0.10159   0.10554   0.12227   0.12336   0.12599

  Beta  occ. eigenvalues --  -88.21917 -88.21403 -88.20963 -18.92489 -18.92151
  Beta  occ. eigenvalues --  -18.91684 -10.08079 -10.07951 -10.07752 -10.07594
  Beta  occ. eigenvalues --  -10.07260 -10.07225 -10.05374 -10.05072 -10.04907
  Beta  occ. eigenvalues --  -10.04512 -10.04152 -10.03826 -10.03666 -10.03617
  Beta  occ. eigenvalues --  -10.03448 -10.03211 -10.02876 -10.02872 -10.02305
  Beta  occ. eigenvalues --  -10.02269 -10.02238 -10.02223 -10.01970 -10.01875
  Beta  occ. eigenvalues --  -10.01843 -10.01841 -10.01785 -10.01413 -10.01249
  Beta  occ. eigenvalues --  -10.01193 -10.01129 -10.01060 -10.00794  -7.82303
  Beta  occ. eigenvalues --   -7.81788  -7.81346  -5.84301  -5.83833  -5.83793
  Beta  occ. eigenvalues --   -5.83435  -5.83350  -5.83329  -5.82900  -5.82887
  Beta  occ. eigenvalues --   -5.82461  -1.10786  -1.10457  -1.09993  -0.93724
  Beta  occ. eigenvalues --   -0.93399  -0.93092  -0.90600  -0.89861  -0.88948
  Beta  occ. eigenvalues --   -0.84512  -0.83003  -0.81060  -0.80565  -0.80377
  Beta  occ. eigenvalues --   -0.79779  -0.79430  -0.79147  -0.78466  -0.78075
  Beta  occ. eigenvalues --   -0.77071  -0.76227  -0.74569  -0.73569  -0.72013
  Beta  occ. eigenvalues --   -0.68766  -0.67214  -0.66529  -0.66447  -0.65343
  Beta  occ. eigenvalues --   -0.64542  -0.62823  -0.61928  -0.61423  -0.60966
  Beta  occ. eigenvalues --   -0.60900  -0.60368  -0.59844  -0.59338  -0.58694
  Beta  occ. eigenvalues --   -0.54793  -0.54447  -0.54006  -0.53619  -0.53366
  Beta  occ. eigenvalues --   -0.53235  -0.52865  -0.52652  -0.51797  -0.51602
  Beta  occ. eigenvalues --   -0.51241  -0.50662  -0.50369  -0.49865  -0.49314
  Beta  occ. eigenvalues --   -0.48874  -0.48340  -0.47993  -0.47757  -0.47563
  Beta  occ. eigenvalues --   -0.47222  -0.46916  -0.46795  -0.46502  -0.46136
  Beta  occ. eigenvalues --   -0.45568  -0.45179  -0.45134  -0.43744  -0.43529
  Beta  occ. eigenvalues --   -0.42770  -0.42660  -0.42366  -0.41961  -0.41551
  Beta  occ. eigenvalues --   -0.40876  -0.40664  -0.39901  -0.39581  -0.39399
  Beta  occ. eigenvalues --   -0.39314  -0.38888  -0.38657  -0.38493  -0.38153
  Beta  occ. eigenvalues --   -0.37736  -0.36135  -0.34764  -0.32911  -0.32493
  Beta  occ. eigenvalues --   -0.32110  -0.31361  -0.30924  -0.30277  -0.29795
  Beta  occ. eigenvalues --   -0.27846  -0.25924  -0.23899
  Beta virt. eigenvalues --   -0.01128   0.01184   0.03813   0.04685   0.05158
  Beta virt. eigenvalues --    0.05964   0.06196   0.08178   0.09302   0.09567
  Beta virt. eigenvalues --    0.10159   0.10554   0.12227   0.12336   0.12599

 Mulliken charges and spin densities:
               1          2
     1  C    0.018579   0.000000
     2  C    0.027487  -0.000000
     3  C   -0.014097   0.000000
     4  C    0.064919  -0.000000
     5  C    0.001801   0.000000
     6  C    0.031100  -0.000000
     7  C   -0.182066   0.000000
     8  C    0.143986  -0.000000
     9  O   -0.248412   0.000000
    10  C    0.063977  -0.000000
    11  C    0.005990  -0.000000
    12  C   -0.146277   0.000000
    13  S    0.148359  -0.000000
    14  C    0.071885   0.000000
    15  C    0.009264  -0.000000
    16  C    0.009133   0.000000
    17  C    0.085058  -0.000000
    18  C   -0.003514  -0.000000
    19  C    0.001228  -0.000000
    20  C   -0.182138   0.000000
    21  C    0.139895   0.000000
    22  O   -0.248834  -0.000000
    23  C    0.064166  -0.000000
    24  C    0.008379  -0.000000
    25  C   -0.144953   0.000000
    26  S    0.147484   0.000000
    27  C    0.070711   0.000000
    28  C    0.003565  -0.000000
    29  C   -0.002996   0.000000
    30  C    0.090177  -0.000000
    31  C    0.012918   0.000000
    32  C    0.005969  -0.000000
    33  C   -0.195886   0.000000
    34  C    0.126516  -0.000000
    35  O   -0.247033   0.000000
    36  C    0.061032   0.000000
    37  C    0.029134   0.000000
    38  C   -0.120316   0.000000
    39  S    0.156124  -0.000000
    40  H   -0.021205   0.000000
    41  H   -0.019081  -0.000000
    42  H   -0.018716   0.000000
    43  H   -0.024056   0.000000
    44  H   -0.019576  -0.000000
    45  H    0.049790  -0.000000
    46  H    0.042672   0.000000
    47  H    0.045513  -0.000000
    48  H   -0.013452   0.000000
    49  H   -0.019518   0.000000
    50  H   -0.022458   0.000000
    51  H   -0.017057   0.000000
    52  H   -0.028368  -0.000000
    53  H    0.046371   0.000000
    54  H    0.043538   0.000000
    55  H    0.051348   0.000000
    56  H   -0.012828  -0.000000
    57  H   -0.017783   0.000000
    58  H   -0.015413   0.000000
    59  H   -0.021935   0.000000
    60  H   -0.028497   0.000000
    61  H    0.051221  -0.000000
    62  H    0.045225   0.000000
    63  H    0.045069   0.000000
    64  H   -0.006865   0.000000
    65  H    0.023749  -0.000000
 Sum of Mulliken charges =  -0.00000   0.00000

 Dipole moment (field-independent basis, Debye):
    X=             -5.9501    Y=              0.7962    Z=             -0.2624  Tot=              6.0089
 Quadrupole moment (field-independent basis, Debye-Ang):
   XX=           -192.2982   YY=           -206.3590   ZZ=           -255.7902
   XY=            -23.0982   XZ=             -2.0877   YZ=             -3.1670

 Normal termination of Gaussian 16 at Sat Jul 25 02:33:18 2020.
