 Gaussian 16, Revision A.03,
 Gaussian 16:  EM64L-G16RevA.03 25-Dec-2016

 ---------------------------------------------------------------
 #P uLC-wPBE/cc-pVDZ iop(3/107=0080500000, 3/108=0080500000) opt
 ---------------------------------------------------------------

 ----------------
 H51 C70 S7 N7 O7
 ----------------
 Symbolic Z-matrix:
 Charge =  0 Multiplicity = 1

 SCF Done:  E(ULC-wPBE) =  -6390.51339942     A.U. after   17 cycles
 SCF Done:  E(ULC-wPBE) =  -6390.61627157     A.U. after   14 cycles
 SCF Done:  E(ULC-wPBE) =  -6390.72032008     A.U. after   15 cycles
 SCF Done:  E(ULC-wPBE) =  -6390.75565107     A.U. after   15 cycles
 SCF Done:  E(ULC-wPBE) =  -6390.77188771     A.U. after   15 cycles
 SCF Done:  E(ULC-wPBE) =  -6390.78249885     A.U. after   14 cycles
 SCF Done:  E(ULC-wPBE) =  -6390.78708577     A.U. after   15 cycles
 SCF Done:  E(ULC-wPBE) =  -6390.78908777     A.U. after   13 cycles
 SCF Done:  E(ULC-wPBE) =  -6390.79014513     A.U. after   13 cycles
 SCF Done:  E(ULC-wPBE) =  -6390.79054235     A.U. after   14 cycles
 SCF Done:  E(ULC-wPBE) =  -6390.79085430     A.U. after    7 cycles
 SCF Done:  E(ULC-wPBE) =  -6390.79085441     A.U. after    7 cycles
 SCF Done:  E(ULC-wPBE) =  -6390.79085431     A.U. after    7 cycles
 SCF Done:  E(ULC-wPBE) =  -6390.79085427     A.U. after    7 cycles
 SCF Done:  E(ULC-wPBE) =  -6390.79085438     A.U. after    6 cycles
 SCF Done:  E(ULC-wPBE) =  -6390.79085438     A.U. after    6 cycles
 SCF Done:  E(ULC-wPBE) =  -6390.79085446     A.U. after    5 cycles
 SCF Done:  E(ULC-wPBE) =  -6390.79085441     A.U. after    5 cycles
 SCF Done:  E(ULC-wPBE) =  -6390.79085441     A.U. after    5 cycles
 SCF Done:  E(ULC-wPBE) =  -6390.79085438     A.U. after    6 cycles
 Optimization completed on the basis of negligible forces.
    -- Stationary point found.

                         Standard orientation:
 ---------------------------------------------------------------------
 Center     Atomic      Atomic             Coordinates (Angstroms)
 Number     Number       Type             X           Y           Z
 ---------------------------------------------------------------------
      1          6           0      -25.583622    2.629016   -2.900928
      2          6           0      -26.016297    1.295577   -2.848704
      3          6           0      -25.120920    0.297495   -2.453801
      4          6           0      -23.795509    0.668753   -2.117482
      5          7           0      -23.372031    1.961364   -2.167213
      6          6           0      -24.251772    2.898205   -2.548376
      7          6           0      -22.780625   -0.287834   -1.692061
      8          6           0      -22.819597   -1.678316   -1.518026
      9          8           0      -23.968218   -2.376358   -1.771506
     10          6           0      -23.915287   -3.788490   -1.572226
     11          6           0      -21.581247   -2.230632   -1.078619
     12          6           0      -20.587041   -1.269834   -0.915625
     13         16           0      -21.188158    0.331220   -1.296402
     14          6           0      -19.205714   -1.479293   -0.484874
     15          6           0      -18.801642   -2.646289    0.205500
     16          6           0      -17.473010   -2.811826    0.588995
     17          6           0      -16.537867   -1.789913    0.287836
     18          7           0      -16.910197   -0.659191   -0.374196
     19          6           0      -18.186179   -0.528276   -0.741122
     20          6           0      -15.131285   -1.854380    0.650030
     21          6           0      -14.383842   -2.830459    1.326650
     22          8           0      -14.986436   -3.970672    1.780305
     23          6           0      -14.151317   -4.907748    2.460909
     24          6           0      -13.008372   -2.490997    1.475878
     25          6           0      -12.691329   -1.255887    0.915613
     26         16           0      -14.101612   -0.509917    0.191516
     27          6           0      -11.388386   -0.594603    0.880626
     28          6           0      -11.237879    0.792857    0.649385
     29          6           0       -9.970642    1.369848    0.630598
     30          6           0       -8.838016    0.548317    0.857064
     31          7           0       -8.963957   -0.791034    1.074498
     32          6           0      -10.187450   -1.322942    1.076155
     33          6           0       -7.472855    1.047478    0.873639
     34          6           0       -6.947942    2.337214    0.698134
     35          8           0       -7.780728    3.396138    0.470214
     36          6           0       -7.162773    4.672444    0.300496
     37          6           0       -5.527527    2.390554    0.793606
     38          6           0       -4.953634    1.145985    1.041330
     39         16           0       -6.177493   -0.103301    1.150066
     40          6           0       -3.535863    0.826631    1.196119
     41          6           0       -3.079357   -0.359939    1.816423
     42          6           0       -1.714991   -0.610206    1.939343
     43          6           0       -0.793552    0.346038    1.443707
     44          7           0       -1.215603    1.491105    0.837292
     45          6           0       -2.527524    1.703162    0.720658
     46          6           0        0.649384    0.194062    1.531886
     47          6           0        1.450130   -0.822136    2.075831
     48          8           0        0.875419   -1.914463    2.661980
     49          6           0        1.764047   -2.901131    3.187786
     50          6           0        2.847237   -0.572677    1.951828
     51          6           0        3.128053    0.632653    1.313105
     52         16           0        1.654671    1.462453    0.854019
     53          6           0        4.439080    1.205636    1.014860
     54          6           0        4.630474    2.578140    0.730777
     55          6           0        5.904391    3.069377    0.456850
     56          6           0        7.004496    2.175735    0.476730
     57          7           0        6.837276    0.849262    0.740606
     58          6           0        5.606070    0.400299    0.990092
     59          6           0        8.376683    2.583065    0.223775
     60          6           0        8.939396    3.832623   -0.079284
     61          8           0        8.144660    4.938594   -0.190728
     62          6           0        8.799516    6.169063   -0.501432
     63          6           0       10.352744    3.792615   -0.253260
     64          6           0       10.883609    2.516060   -0.085007
     65         16           0        9.628134    1.355477    0.299178
     66          6           0       12.282366    2.105964   -0.187424
     67          6           0       12.674462    0.762465   -0.395209
     68          6           0       14.023801    0.440328   -0.488807
     69          6           0       15.000595    1.465877   -0.381776
     70          7           0       14.639771    2.760453   -0.173394
     71          6           0       13.338536    3.044965   -0.078536
     72          6           0       16.427572    1.177817   -0.486811
     73          6           0       17.532223    2.051671   -0.475461
     74          8           0       17.363075    3.393122   -0.365591
     75          6           0       18.546813    4.189305   -0.370077
     76          6           0       18.786547    1.381399   -0.605125
     77          6           0       18.672143    0.001024   -0.715731
     78         16           0       16.991003   -0.480505   -0.648936
     79          6           0       19.734109   -0.991986   -0.857067
     80          6           0       19.506675   -2.295463   -1.357163
     81          6           0       20.565723   -3.189438   -1.470368
     82          6           0       21.872540   -2.782053   -1.093008
     83          7           0       22.104830   -1.535905   -0.602659
     84          6           0       21.071007   -0.697623   -0.491015
     85          6           0       23.020144   -3.679206   -1.211769
     86          6           0       24.374551   -3.460224   -0.899298
     87          8           0       24.800758   -2.270029   -0.406296
     88          6           0       26.193695   -2.158767   -0.119836
     89          6           0       25.205581   -4.601303   -1.157556
     90          6           0       24.495966   -5.670784   -1.658795
     91         16           0       22.812941   -5.316084   -1.826096
     92          1           0      -26.257035    3.441725   -3.206486
     93          1           0      -27.050488    1.031511   -3.115115
     94          1           0      -25.422043   -0.755210   -2.400483
     95          1           0      -23.866406    3.931814   -2.574143
     96          1           0      -24.923570   -4.168174   -1.816378
     97          1           0      -23.170444   -4.268127   -2.244190
     98          1           0      -23.672977   -4.043124   -0.517286
     99          1           0      -21.406598   -3.300134   -0.916532
    100          1           0      -19.540698   -3.419783    0.460355
    101          1           0      -17.145690   -3.708222    1.128366
    102          1           0      -18.430776    0.395746   -1.293995
    103          1           0      -13.333618   -5.276935    1.804334
    104          1           0      -14.806254   -5.752862    2.738591
    105          1           0      -13.710518   -4.467347    3.381656
    106          1           0      -12.274641   -3.110728    2.002818
    107          1           0      -12.126762    1.424086    0.498530
    108          1           0       -9.839559    2.443935    0.456222
    109          1           0      -10.228464   -2.414893    1.227700
    110          1           0       -6.471769    4.677621   -0.570331
    111          1           0       -6.605660    4.979756    1.212165
    112          1           0       -7.985747    5.386240    0.118038
    113          1           0       -4.939574    3.311590    0.715751
    114          1           0       -3.804848   -1.083421    2.218391
    115          1           0       -1.347383   -1.523585    2.420893
    116          1           0       -2.812012    2.630961    0.196046
    117          1           0        1.121506   -3.698116    3.602606
    118          1           0        2.401718   -2.484958    3.997796
    119          1           0        2.413613   -3.328756    2.393405
    120          1           0        3.627928   -1.233960    2.343359
    121          1           0        3.771323    3.265971    0.741444
    122          1           0        6.067868    4.131161    0.239635
    123          1           0        5.525399   -0.685291    1.168860
    124          1           0        9.308979    6.121460   -1.488397
    125          1           0        9.540425    6.444747    0.280203
    126          1           0        8.004648    6.935217   -0.537887
    127          1           0       10.965047    4.659370   -0.525003
    128          1           0       11.913326   -0.025137   -0.501765
    129          1           0       14.323506   -0.603771   -0.661154
    130          1           0       13.103190    4.105107    0.119184
    131          1           0       19.218109    3.934515    0.479475
    132          1           0       19.110392    4.085614   -1.323574
    133          1           0       18.204397    5.233937   -0.262125
    134          1           0       19.752826    1.895015   -0.649512
    135          1           0       18.496699   -2.598440   -1.672476
    136          1           0       20.384176   -4.200479   -1.863377
    137          1           0       21.310552    0.289677   -0.059689
    138          1           0       26.515935   -2.890578    0.653545
    139          1           0       26.337939   -1.134373    0.267544
    140          1           0       26.815178   -2.295290   -1.032368
    141          1           0       26.286283   -4.633750   -0.981223
    142          1           0       24.874988   -6.658216   -1.941834
 ---------------------------------------------------------------------

 Alpha virt. eigenvalues --    0.11348   0.11661   0.11974   0.12076   0.12329
 Alpha virt. eigenvalues --    0.12376   0.12452   0.12511   0.12804   0.13154
 Alpha virt. eigenvalues --    0.13234   0.13312   0.13328   0.13388   0.13430

  Beta  occ. eigenvalues --  -88.15048 -88.14694 -88.14148 -88.14142 -88.14100
  Beta  occ. eigenvalues --  -88.14035 -88.13900 -18.85884 -18.85863 -18.85824
  Beta  occ. eigenvalues --  -18.85802 -18.85682 -18.85039 -18.84865 -14.03988
  Beta  occ. eigenvalues --  -14.03969 -14.03915 -14.03795 -14.03700 -14.03442
  Beta  occ. eigenvalues --  -14.03438 -10.01153 -10.01039 -10.01025 -10.01016
  Beta  occ. eigenvalues --  -10.00974 -10.00940 -10.00832 -10.00812 -10.00804
  Beta  occ. eigenvalues --  -10.00782 -10.00761 -10.00738 -10.00323 -10.00124
  Beta  occ. eigenvalues --   -9.99270  -9.98977  -9.98848  -9.98825  -9.98779
  Beta  occ. eigenvalues --   -9.98765  -9.98716  -9.98575  -9.98244  -9.98243
  Beta  occ. eigenvalues --   -9.98203  -9.98193  -9.98139  -9.97985  -9.97900
  Beta  occ. eigenvalues --   -9.97835  -9.97810  -9.97754  -9.97609  -9.97558
  Beta  occ. eigenvalues --   -9.97335  -9.97246  -9.97234  -9.96929  -9.96917
  Beta  occ. eigenvalues --   -9.96871  -9.96866  -9.96824  -9.96607  -9.96563
  Beta  occ. eigenvalues --   -9.96540  -9.96521  -9.96505  -9.96477  -9.96413
  Beta  occ. eigenvalues --   -9.96164  -9.96086  -9.96070  -9.96060  -9.95983
  Beta  occ. eigenvalues --   -9.95842  -9.95817  -9.95712  -9.95448  -9.95420
  Beta  occ. eigenvalues --   -9.95302  -9.95299  -9.95261  -9.95222  -9.95121
  Beta  occ. eigenvalues --   -9.95032  -9.95010  -9.94974  -9.94938  -9.94761
  Beta  occ. eigenvalues --   -9.94669  -7.75302  -7.74957  -7.74324  -7.74317
  Beta  occ. eigenvalues --   -7.74276  -7.74208  -7.74066  -5.77398  -5.77062
  Beta  occ. eigenvalues --   -5.76959  -5.76628  -5.76549  -5.76431  -5.76425
  Beta  occ. eigenvalues --   -5.76383  -5.76316  -5.76179  -5.76173  -5.75993
  Beta  occ. eigenvalues --   -5.75987  -5.75945  -5.75877  -5.75733  -5.75567
  Beta  occ. eigenvalues --   -5.75560  -5.75518  -5.75452  -5.75314  -1.03451
  Beta  occ. eigenvalues --   -1.03430  -1.03380  -1.03372  -1.03247  -1.03012
  Beta  occ. eigenvalues --   -1.02856  -0.90582  -0.90522  -0.90508  -0.90464
  Beta  occ. eigenvalues --   -0.90377  -0.90212  -0.89948  -0.85477  -0.85243
  Beta  occ. eigenvalues --   -0.85105  -0.85027  -0.84859  -0.84682  -0.84525
  Beta  occ. eigenvalues --   -0.78863  -0.78690  -0.78457  -0.78196  -0.77968
  Beta  occ. eigenvalues --   -0.77810  -0.76565  -0.76251  -0.75948  -0.75781
  Beta  occ. eigenvalues --   -0.75521  -0.75126  -0.74659  -0.74205  -0.73177
  Beta  occ. eigenvalues --   -0.72842  -0.72703  -0.72680  -0.72633  -0.72473
  Beta  occ. eigenvalues --   -0.72444  -0.71767  -0.71383  -0.70808  -0.70244
  Beta  occ. eigenvalues --   -0.69840  -0.69614  -0.69445  -0.67707  -0.67585
  Beta  occ. eigenvalues --   -0.67428  -0.67127  -0.66577  -0.65842  -0.65055
  Beta  occ. eigenvalues --   -0.63969  -0.63064  -0.62296  -0.61884  -0.61778
  Beta  occ. eigenvalues --   -0.61718  -0.61376  -0.61155  -0.60898  -0.60774
  Beta  occ. eigenvalues --   -0.60533  -0.59984  -0.59527  -0.59094  -0.56486
  Beta  occ. eigenvalues --   -0.55957  -0.55636  -0.55400  -0.55333  -0.55100
  Beta  occ. eigenvalues --   -0.55051  -0.54879  -0.54678  -0.54604  -0.54412
  Beta  occ. eigenvalues --   -0.54272  -0.54234  -0.54155  -0.53354  -0.53211
  Beta  occ. eigenvalues --   -0.53138  -0.52962  -0.52776  -0.52699  -0.52523
  Beta  occ. eigenvalues --   -0.49089  -0.48747  -0.48745  -0.48692  -0.48665
  Beta  occ. eigenvalues --   -0.48650  -0.48017  -0.47838  -0.47590  -0.47295
  Beta  occ. eigenvalues --   -0.47129  -0.46947  -0.46850  -0.46834  -0.46789
  Beta  occ. eigenvalues --   -0.46775  -0.46714  -0.46695  -0.46654  -0.46417
  Beta  occ. eigenvalues --   -0.46328  -0.46246  -0.46140  -0.46068  -0.45957
  Beta  occ. eigenvalues --   -0.45565  -0.45157  -0.44948  -0.44774  -0.43773
  Beta  occ. eigenvalues --   -0.43634  -0.43532  -0.43369  -0.43224  -0.43105
  Beta  occ. eigenvalues --   -0.42924  -0.42458  -0.42315  -0.42166  -0.42091
  Beta  occ. eigenvalues --   -0.41995  -0.41970  -0.41692  -0.41661  -0.41502
  Beta  occ. eigenvalues --   -0.41420  -0.41206  -0.41008  -0.40810  -0.40768
  Beta  occ. eigenvalues --   -0.40588  -0.40450  -0.40403  -0.40339  -0.40299
  Beta  occ. eigenvalues --   -0.40196  -0.39912  -0.39715  -0.39424  -0.39150
  Beta  occ. eigenvalues --   -0.39020  -0.38881  -0.38702  -0.38537  -0.38395
  Beta  occ. eigenvalues --   -0.38279  -0.38238  -0.38156  -0.38124  -0.37990
  Beta  occ. eigenvalues --   -0.37851  -0.37767  -0.37718  -0.37581  -0.37388
  Beta  occ. eigenvalues --   -0.37150  -0.37010  -0.36442  -0.35360  -0.34968
  Beta  occ. eigenvalues --   -0.34898  -0.34824  -0.34730  -0.34621  -0.34616
  Beta  occ. eigenvalues --   -0.34247  -0.34171  -0.34053  -0.33961  -0.33944
  Beta  occ. eigenvalues --   -0.33799  -0.33721  -0.33653  -0.33574  -0.33529
  Beta  occ. eigenvalues --   -0.33428  -0.33350  -0.33283  -0.33213  -0.31712
  Beta  occ. eigenvalues --   -0.31464  -0.31082  -0.30573  -0.30005  -0.29805
  Beta  occ. eigenvalues --   -0.29701  -0.29527  -0.29463  -0.29378  -0.29219
  Beta  occ. eigenvalues --   -0.28962  -0.28531  -0.27905  -0.26430  -0.25984
  Beta  occ. eigenvalues --   -0.25764  -0.25728  -0.25522  -0.25466  -0.25342
  Beta  occ. eigenvalues --   -0.25278  -0.25149  -0.25106  -0.25064  -0.24926
  Beta  occ. eigenvalues --   -0.24907  -0.24617  -0.23737  -0.23384  -0.22763
  Beta  occ. eigenvalues --   -0.21897  -0.20937  -0.20037  -0.19397
  Beta virt. eigenvalues --   -0.06421  -0.05743  -0.04808  -0.03734  -0.02642
  Beta virt. eigenvalues --   -0.01655  -0.01245  -0.01098  -0.00923  -0.00808
  Beta virt. eigenvalues --   -0.00768  -0.00689  -0.00401  -0.00051   0.00717

 Mulliken charges and spin densities:
               1          2
     1  C   -0.028074  -0.000000
     2  C    0.077964   0.000000
     3  C    0.001502   0.000000
     4  C    0.132797  -0.000000
     5  N   -0.220488   0.000000
     6  C    0.092807   0.000000
     7  C   -0.145437   0.000000
     8  C    0.116293   0.000000
     9  O   -0.244956  -0.000000
    10  C    0.068080  -0.000000
    11  C    0.006871  -0.000000
    12  C   -0.150851   0.000000
    13  S    0.177065   0.000000
    14  C    0.022675   0.000000
    15  C    0.054566  -0.000000
    16  C    0.020388   0.000000
    17  C    0.144205   0.000000
    18  N   -0.219814  -0.000000
    19  C    0.086205  -0.000000
    20  C   -0.148938   0.000000
    21  C    0.109206  -0.000000
    22  O   -0.245195  -0.000000
    23  C    0.067363  -0.000000
    24  C    0.009195   0.000000
    25  C   -0.147408  -0.000000
    26  S    0.174744  -0.000000
    27  C    0.017934   0.000000
    28  C    0.057454  -0.000000
    29  C    0.021384   0.000000
    30  C    0.141432  -0.000000
    31  N   -0.220788   0.000000
    32  C    0.084845  -0.000000
    33  C   -0.148015   0.000000
    34  C    0.111158   0.000000
    35  O   -0.244182   0.000000
    36  C    0.066938   0.000000
    37  C    0.009300  -0.000000
    38  C   -0.146907   0.000000
    39  S    0.170861   0.000000
    40  C    0.018302  -0.000000
    41  C    0.057354   0.000000
    42  C    0.021325  -0.000000
    43  C    0.141589  -0.000000
    44  N   -0.220672   0.000000
    45  C    0.085024   0.000000
    46  C   -0.148161   0.000000
    47  C    0.110783   0.000000
    48  O   -0.244362  -0.000000
    49  C    0.066972  -0.000000
    50  C    0.009519  -0.000000
    51  C   -0.147138   0.000000
    52  S    0.171401   0.000000
    53  C    0.017908   0.000000
    54  C    0.057591  -0.000000
    55  C    0.021187   0.000000
    56  C    0.141636  -0.000000
    57  N   -0.220562   0.000000
    58  C    0.085179  -0.000000
    59  C   -0.148186   0.000000
    60  C    0.110763  -0.000000
    61  O   -0.244336  -0.000000
    62  C    0.067089  -0.000000
    63  C    0.009671  -0.000000
    64  C   -0.146040   0.000000
    65  S    0.171331  -0.000000
    66  C    0.022699  -0.000000
    67  C    0.048994   0.000000
    68  C    0.016517  -0.000000
    69  C    0.105597   0.000000
    70  N   -0.189203  -0.000000
    71  C    0.070793   0.000000
    72  C   -0.155472   0.000000
    73  C    0.151702  -0.000000
    74  O   -0.199010   0.000000
    75  C    0.060988  -0.000000
    76  C    0.002563  -0.000000
    77  C   -0.137193   0.000000
    78  S    0.116000   0.000000
    79  C    0.027250  -0.000000
    80  C    0.045333   0.000000
    81  C    0.016951  -0.000000
    82  C    0.120091   0.000000
    83  N   -0.188997   0.000000
    84  C    0.070560   0.000000
    85  C   -0.173219  -0.000000
    86  C    0.134782   0.000000
    87  O   -0.196828  -0.000000
    88  C    0.057806  -0.000000
    89  C    0.034865  -0.000000
    90  C   -0.112680   0.000000
    91  S    0.136764   0.000000
    92  H   -0.020644   0.000000
    93  H   -0.016629  -0.000000
    94  H   -0.022438  -0.000000
    95  H   -0.004046  -0.000000
    96  H    0.048951   0.000000
    97  H    0.047273   0.000000
    98  H    0.044665   0.000000
    99  H   -0.024140  -0.000000
   100  H   -0.031772  -0.000000
   101  H   -0.025190   0.000000
   102  H    0.003251   0.000000
   103  H    0.046952   0.000000
   104  H    0.048740  -0.000000
   105  H    0.048551  -0.000000
   106  H   -0.019967  -0.000000
   107  H   -0.013429   0.000000
   108  H   -0.022634   0.000000
   109  H   -0.012392  -0.000000
   110  H    0.047298   0.000000
   111  H    0.048391   0.000000
   112  H    0.050723  -0.000000
   113  H   -0.019537  -0.000000
   114  H   -0.014768   0.000000
   115  H   -0.023199  -0.000000
   116  H   -0.011845   0.000000
   117  H    0.050176   0.000000
   118  H    0.048675  -0.000000
   119  H    0.047316  -0.000000
   120  H   -0.019282   0.000000
   121  H   -0.014805   0.000000
   122  H   -0.023175   0.000000
   123  H   -0.011858   0.000000
   124  H    0.048679   0.000000
   125  H    0.046941  -0.000000
   126  H    0.050130  -0.000000
   127  H   -0.019388  -0.000000
   128  H   -0.014356   0.000000
   129  H   -0.013168   0.000000
   130  H   -0.015234  -0.000000
   131  H    0.042653   0.000000
   132  H    0.043605  -0.000000
   133  H    0.050865   0.000000
   134  H   -0.017999   0.000000
   135  H   -0.016506   0.000000
   136  H   -0.013510  -0.000000
   137  H   -0.012679  -0.000000
   138  H    0.042577  -0.000000
   139  H    0.052018   0.000000
   140  H    0.042195  -0.000000
   141  H   -0.012591   0.000000
   142  H    0.021562   0.000000
 Sum of Mulliken charges =  -0.00000  -0.00000

 Dipole moment (field-independent basis, Debye):
    X=              5.2924    Y=             -2.7239    Z=              1.4772  Tot=              6.1328
 Quadrupole moment (field-independent basis, Debye-Ang):
   XX=           -313.2544   YY=           -460.4579   ZZ=           -572.0939
   XY=             73.7236   XZ=            -18.2625   YZ=            -17.3877

 Normal termination of Gaussian 16 at Fri Jul 24 10:30:39 2020.
