 Gaussian 16, Revision A.03,
 Gaussian 16:  EM64L-G16RevA.03 25-Dec-2016

 ---------------------------------------------------------------
 #P uLC-wPBE/cc-pVDZ iop(3/107=0366500000, 3/108=0366500000) opt
 ---------------------------------------------------------------

 ----------------
 H29 C36 S3 O6 F3
 ----------------
 Symbolic Z-matrix:
 Charge =  0 Multiplicity = 1

 SCF Done:  E(ULC-wPBE) =  -3332.78020671     A.U. after   17 cycles
 SCF Done:  E(ULC-wPBE) =  -3332.84595856     A.U. after   14 cycles
 SCF Done:  E(ULC-wPBE) =  -3332.89885693     A.U. after   15 cycles
 SCF Done:  E(ULC-wPBE) =  -3332.90432450     A.U. after   14 cycles
 SCF Done:  E(ULC-wPBE) =  -3332.90826347     A.U. after   14 cycles
 SCF Done:  E(ULC-wPBE) =  -3332.91079293     A.U. after   14 cycles
 SCF Done:  E(ULC-wPBE) =  -3332.91242275     A.U. after   13 cycles
 SCF Done:  E(ULC-wPBE) =  -3332.91327604     A.U. after   13 cycles
 SCF Done:  E(ULC-wPBE) =  -3332.91364420     A.U. after   13 cycles
 SCF Done:  E(ULC-wPBE) =  -3332.91382885     A.U. after   12 cycles
 SCF Done:  E(ULC-wPBE) =  -3332.91388796     A.U. after   12 cycles
 SCF Done:  E(ULC-wPBE) =  -3332.91392294     A.U. after   11 cycles
 SCF Done:  E(ULC-wPBE) =  -3332.91394461     A.U. after   11 cycles
 SCF Done:  E(ULC-wPBE) =  -3332.91395006     A.U. after   10 cycles
 SCF Done:  E(ULC-wPBE) =  -3332.91395342     A.U. after    8 cycles
 SCF Done:  E(ULC-wPBE) =  -3332.91395553     A.U. after    8 cycles
 SCF Done:  E(ULC-wPBE) =  -3332.91395643     A.U. after    8 cycles
 SCF Done:  E(ULC-wPBE) =  -3332.91395722     A.U. after   10 cycles
 SCF Done:  E(ULC-wPBE) =  -3332.91395748     A.U. after    7 cycles
 SCF Done:  E(ULC-wPBE) =  -3332.91395752     A.U. after    7 cycles
 Optimization completed.
    -- Stationary point found.

                         Standard orientation:
 ---------------------------------------------------------------------
 Center     Atomic      Atomic             Coordinates (Angstroms)
 Number     Number       Type             X           Y           Z
 ---------------------------------------------------------------------
      1          6           0       10.802673   -2.872056   -0.226793
      2          6           0        9.932392   -2.919053   -1.303137
      3          6           0        8.791365   -2.131798   -1.249255
      4          9           0        7.945175   -2.166474   -2.291353
      5          6           0        8.478862   -1.307795   -0.175406
      6          6           0        9.378506   -1.292870    0.910016
      7          8           0        9.025296   -0.503047    1.946938
      8          6           0        9.902126   -0.418113    3.046057
      9          6           0       10.538174   -2.067264    0.878529
     10          6           0        7.260976   -0.479898   -0.171836
     11          6           0        7.184831    0.887685   -0.076442
     12          8           0        8.314192    1.631873   -0.008332
     13          6           0        8.150339    3.026796    0.095028
     14          6           0        5.845042    1.376776   -0.082908
     15          6           0        4.920212    0.371263   -0.187541
     16         16           0        5.681878   -1.167336   -0.266885
     17          6           0        3.452864    0.501329   -0.236686
     18          6           0        2.684021   -0.382206   -0.988151
     19          6           0        1.309315   -0.211381   -1.011611
     20          9           0        0.582193   -1.065042   -1.749022
     21          6           0        0.644884    0.798244   -0.327872
     22          6           0        1.440718    1.673904    0.438802
     23          8           0        0.765481    2.619759    1.126337
     24          6           0        1.504747    3.547117    1.885849
     25          6           0        2.824701    1.527232    0.479831
     26          6           0       -0.816991    0.949103   -0.399807
     27          6           0       -1.520062    2.044762   -0.837299
     28          8           0       -0.866084    3.136437   -1.300270
     29          6           0       -1.660047    4.214287   -1.737816
     30          6           0       -2.933634    1.870768   -0.762676
     31          6           0       -3.285488    0.640583   -0.272608
     32         16           0       -1.896624   -0.297712    0.106756
     33          6           0       -4.645477    0.109724   -0.069093
     34          6           0       -4.914964   -1.244299   -0.242416
     35          6           0       -6.212054   -1.692684   -0.050686
     36          9           0       -6.458252   -2.999549   -0.231734
     37          6           0       -7.269871   -0.866666    0.304513
     38          6           0       -6.972866    0.499183    0.488245
     39          8           0       -8.011468    1.272103    0.872066
     40          6           0       -7.790361    2.653307    1.034258
     41          6           0       -5.679107    0.978693    0.300987
     42          6           0       -8.635505   -1.387874    0.478329
     43          6           0       -9.760709   -1.010595   -0.212342
     44          8           0       -9.681391   -0.078898   -1.192592
     45          6           0      -10.881173    0.250160   -1.852745
     46          6           0      -10.937617   -1.702923    0.210914
     47          6           0      -10.670999   -2.588573    1.213312
     48         16           0       -9.020991   -2.596421    1.649423
     49          1           0       11.711927   -3.477494   -0.240297
     50          1           0       10.114911   -3.539966   -2.180585
     51          1           0       10.037895   -1.396750    3.537489
     52          1           0        9.433707    0.275143    3.755606
     53          1           0       10.887736   -0.020368    2.749907
     54          1           0       11.238460   -2.056429    1.713003
     55          1           0        7.632360    3.444854   -0.785619
     56          1           0        9.159757    3.454054    0.147505
     57          1           0        7.595585    3.306535    1.007664
     58          1           0        5.567610    2.429547   -0.053570
     59          1           0        3.130599   -1.182858   -1.579076
     60          1           0        0.769580    4.225336    2.336307
     61          1           0        2.195078    4.131291    1.253672
     62          1           0        2.077333    3.053633    2.689728
     63          1           0        3.433647    2.184872    1.098440
     64          1           0       -0.965062    4.996205   -2.069224
     65          1           0       -2.305894    3.929195   -2.586389
     66          1           0       -2.288495    4.615831   -0.923728
     67          1           0       -3.668517    2.602930   -1.094352
     68          1           0       -4.146710   -1.954376   -0.551116
     69          1           0       -7.056196    2.859513    1.831900
     70          1           0       -7.448967    3.122881    0.095931
     71          1           0       -8.757867    3.084224    1.319958
     72          1           0       -5.446065    2.028189    0.475006
     73          1           0      -10.623755    1.008149   -2.603448
     74          1           0      -11.319620   -0.623658   -2.365446
     75          1           0      -11.627459    0.673634   -1.158079
     76          1           0      -11.932535   -1.557924   -0.207542
     77          1           0      -11.376434   -3.248138    1.716171
 ---------------------------------------------------------------------

 The electronic state is 1-A.
 Alpha  occ. eigenvalues --  -88.29428 -88.29383 -88.29128 -24.47647 -24.47615
 Alpha  occ. eigenvalues --  -24.47492 -18.99813 -18.99706 -18.99660 -18.99054
 Alpha  occ. eigenvalues --  -18.99052 -18.98763 -10.18503 -10.18402 -10.18347
 Alpha  occ. eigenvalues --  -10.17240 -10.17105 -10.17085 -10.15863 -10.15754
 Alpha  occ. eigenvalues --  -10.15733 -10.15705 -10.15698 -10.15535 -10.15523
 Alpha  occ. eigenvalues --  -10.15365 -10.15254 -10.13661 -10.13620 -10.13055
 Alpha  occ. eigenvalues --  -10.12932 -10.12559 -10.12158 -10.12146 -10.11806
 Alpha  occ. eigenvalues --  -10.11560 -10.11541 -10.11474 -10.11389 -10.10425
 Alpha  occ. eigenvalues --  -10.10369 -10.10231 -10.10160 -10.10146 -10.10113
 Alpha  occ. eigenvalues --  -10.09968 -10.09926 -10.09852  -7.90102  -7.90056
 Alpha  occ. eigenvalues --   -7.89813  -5.91748  -5.91703  -5.91452  -5.91231
 Alpha  occ. eigenvalues --   -5.91185  -5.90933  -5.90807  -5.90761  -5.90532
 Alpha  occ. eigenvalues --   -1.32313  -1.32253  -1.32158  -1.19666  -1.19552
 Alpha  occ. eigenvalues --   -1.19509  -1.18604  -1.18603  -1.18306  -1.02896
 Alpha  occ. eigenvalues --   -1.02623  -1.01692  -1.00169  -0.99471  -0.98923
 Alpha  occ. eigenvalues --   -0.93591  -0.92152  -0.90666  -0.88509  -0.88339
 Alpha  occ. eigenvalues --   -0.88138  -0.87836  -0.87397  -0.87153  -0.86477
 Alpha  occ. eigenvalues --   -0.85345  -0.84538  -0.83591  -0.83351  -0.83040
 Alpha  occ. eigenvalues --   -0.81538  -0.80763  -0.79175  -0.76795  -0.74772
 Alpha  occ. eigenvalues --   -0.73455  -0.72720  -0.72675  -0.72465  -0.69146
 Alpha  occ. eigenvalues --   -0.68954  -0.68634  -0.67996  -0.67622  -0.66986
 Alpha  occ. eigenvalues --   -0.66574  -0.65977  -0.65308  -0.64817  -0.63408
 Alpha  occ. eigenvalues --   -0.63252  -0.62986  -0.62685  -0.62570  -0.60655
 Alpha  occ. eigenvalues --   -0.60430  -0.60072  -0.59746  -0.59639  -0.59588
 Alpha  occ. eigenvalues --   -0.58965  -0.58927  -0.58752  -0.58630  -0.58533
 Alpha  occ. eigenvalues --   -0.58201  -0.57597  -0.57503  -0.57434  -0.56821
 Alpha  occ. eigenvalues --   -0.56636  -0.56337  -0.55333  -0.55006  -0.54873
 Alpha  occ. eigenvalues --   -0.54562  -0.54005  -0.53414  -0.52707  -0.51885
 Alpha  occ. eigenvalues --   -0.51584  -0.51284  -0.51151  -0.51036  -0.50752
 Alpha  occ. eigenvalues --   -0.50681  -0.50339  -0.50115  -0.49504  -0.49244
 Alpha  occ. eigenvalues --   -0.48796  -0.48490  -0.48137  -0.48072  -0.47066
 Alpha  occ. eigenvalues --   -0.46839  -0.46726  -0.45086  -0.44890  -0.44548
 Alpha  occ. eigenvalues --   -0.44457  -0.44371  -0.44163  -0.43864  -0.43688
 Alpha  occ. eigenvalues --   -0.43624  -0.43596  -0.43387  -0.43090  -0.42780
 Alpha  occ. eigenvalues --   -0.42150  -0.41887  -0.37223  -0.36258  -0.34904
 Alpha  occ. eigenvalues --   -0.33820  -0.33151  -0.32956  -0.32334  -0.32180
 Alpha  occ. eigenvalues --   -0.32135  -0.30266  -0.29093  -0.27702
 Alpha virt. eigenvalues --    0.02006   0.03871   0.06928   0.07731   0.08776
 Alpha virt. eigenvalues --    0.09048   0.09293   0.10360   0.11344   0.13880
 Alpha virt. eigenvalues --    0.13926   0.14306   0.14535   0.14679   0.15152

  Beta  occ. eigenvalues --  -88.29428 -88.29383 -88.29128 -24.47647 -24.47615
  Beta  occ. eigenvalues --  -24.47492 -18.99813 -18.99706 -18.99660 -18.99054
  Beta  occ. eigenvalues --  -18.99052 -18.98763 -10.18503 -10.18402 -10.18347
  Beta  occ. eigenvalues --  -10.17240 -10.17105 -10.17085 -10.15863 -10.15754
  Beta  occ. eigenvalues --  -10.15733 -10.15705 -10.15698 -10.15535 -10.15523
  Beta  occ. eigenvalues --  -10.15365 -10.15254 -10.13661 -10.13620 -10.13055
  Beta  occ. eigenvalues --  -10.12932 -10.12559 -10.12158 -10.12146 -10.11806
  Beta  occ. eigenvalues --  -10.11560 -10.11541 -10.11474 -10.11389 -10.10425
  Beta  occ. eigenvalues --  -10.10369 -10.10231 -10.10160 -10.10146 -10.10113
  Beta  occ. eigenvalues --  -10.09968 -10.09926 -10.09852  -7.90102  -7.90056
  Beta  occ. eigenvalues --   -7.89813  -5.91748  -5.91703  -5.91452  -5.91231
  Beta  occ. eigenvalues --   -5.91185  -5.90933  -5.90807  -5.90761  -5.90532
  Beta  occ. eigenvalues --   -1.32313  -1.32253  -1.32158  -1.19666  -1.19552
  Beta  occ. eigenvalues --   -1.19509  -1.18604  -1.18603  -1.18306  -1.02896
  Beta  occ. eigenvalues --   -1.02623  -1.01692  -1.00169  -0.99471  -0.98923
  Beta  occ. eigenvalues --   -0.93591  -0.92152  -0.90666  -0.88509  -0.88339
  Beta  occ. eigenvalues --   -0.88138  -0.87836  -0.87397  -0.87153  -0.86477
  Beta  occ. eigenvalues --   -0.85345  -0.84538  -0.83591  -0.83351  -0.83040
  Beta  occ. eigenvalues --   -0.81538  -0.80763  -0.79175  -0.76795  -0.74772
  Beta  occ. eigenvalues --   -0.73455  -0.72720  -0.72675  -0.72465  -0.69146
  Beta  occ. eigenvalues --   -0.68954  -0.68634  -0.67996  -0.67622  -0.66986
  Beta  occ. eigenvalues --   -0.66574  -0.65977  -0.65308  -0.64817  -0.63408
  Beta  occ. eigenvalues --   -0.63252  -0.62986  -0.62685  -0.62570  -0.60655
  Beta  occ. eigenvalues --   -0.60430  -0.60072  -0.59746  -0.59639  -0.59588
  Beta  occ. eigenvalues --   -0.58965  -0.58927  -0.58752  -0.58630  -0.58533
  Beta  occ. eigenvalues --   -0.58201  -0.57597  -0.57503  -0.57434  -0.56821
  Beta  occ. eigenvalues --   -0.56636  -0.56337  -0.55333  -0.55006  -0.54873
  Beta  occ. eigenvalues --   -0.54562  -0.54005  -0.53414  -0.52707  -0.51885
  Beta  occ. eigenvalues --   -0.51584  -0.51284  -0.51151  -0.51036  -0.50752
  Beta  occ. eigenvalues --   -0.50681  -0.50339  -0.50115  -0.49504  -0.49244
  Beta  occ. eigenvalues --   -0.48796  -0.48490  -0.48137  -0.48072  -0.47066
  Beta  occ. eigenvalues --   -0.46839  -0.46726  -0.45086  -0.44890  -0.44548
  Beta  occ. eigenvalues --   -0.44457  -0.44371  -0.44163  -0.43864  -0.43688
  Beta  occ. eigenvalues --   -0.43624  -0.43596  -0.43387  -0.43090  -0.42780
  Beta  occ. eigenvalues --   -0.42150  -0.41887  -0.37223  -0.36258  -0.34904
  Beta  occ. eigenvalues --   -0.33820  -0.33151  -0.32956  -0.32334  -0.32180
  Beta  occ. eigenvalues --   -0.32135  -0.30266  -0.29093  -0.27702
  Beta virt. eigenvalues --    0.02006   0.03871   0.06928   0.07731   0.08776
  Beta virt. eigenvalues --    0.09048   0.09293   0.10360   0.11344   0.13880
  Beta virt. eigenvalues --    0.13926   0.14306   0.14535   0.14679   0.15152

 Mulliken charges and spin densities:
               1          2
     1  C    0.025520   0.000000
     2  C   -0.017064  -0.000000
     3  C    0.126934   0.000000
     4  F   -0.120501   0.000000
     5  C   -0.078214  -0.000000
     6  C    0.132389   0.000000
     7  O   -0.231419   0.000000
     8  C    0.047353  -0.000000
     9  C   -0.060883  -0.000000
    10  C   -0.196897   0.000000
    11  C    0.197242   0.000000
    12  O   -0.242803   0.000000
    13  C    0.046394   0.000000
    14  C   -0.024476  -0.000000
    15  C   -0.158607   0.000000
    16  S    0.197072  -0.000000
    17  C    0.052451   0.000000
    18  C   -0.023867  -0.000000
    19  C    0.133197  -0.000000
    20  F   -0.117561  -0.000000
    21  C   -0.068225   0.000000
    22  C    0.142213  -0.000000
    23  O   -0.232091   0.000000
    24  C    0.050427  -0.000000
    25  C   -0.060844   0.000000
    26  C   -0.200939  -0.000000
    27  C    0.195212   0.000000
    28  O   -0.243038  -0.000000
    29  C    0.046449   0.000000
    30  C   -0.023746  -0.000000
    31  C   -0.157852   0.000000
    32  S    0.197570   0.000000
    33  C    0.051166  -0.000000
    34  C   -0.024900   0.000000
    35  C    0.134169  -0.000000
    36  F   -0.118030   0.000000
    37  C   -0.062953   0.000000
    38  C    0.143125   0.000000
    39  O   -0.231280   0.000000
    40  C    0.050518  -0.000000
    41  C   -0.061482  -0.000000
    42  C   -0.209597  -0.000000
    43  C    0.180284   0.000000
    44  O   -0.242970  -0.000000
    45  C    0.044583   0.000000
    46  C   -0.010133  -0.000000
    47  C   -0.136027  -0.000000
    48  S    0.184017   0.000000
    49  H    0.007149  -0.000000
    50  H    0.009915  -0.000000
    51  H    0.049122   0.000000
    52  H    0.058564  -0.000000
    53  H    0.048789   0.000000
    54  H    0.001865   0.000000
    55  H    0.047150   0.000000
    56  H    0.056053  -0.000000
    57  H    0.041357  -0.000000
    58  H    0.002903  -0.000000
    59  H    0.012597  -0.000000
    60  H    0.058316   0.000000
    61  H    0.046009  -0.000000
    62  H    0.051194  -0.000000
    63  H   -0.007025  -0.000000
    64  H    0.055695   0.000000
    65  H    0.047742  -0.000000
    66  H    0.041350   0.000000
    67  H    0.003073   0.000000
    68  H    0.012451  -0.000000
    69  H    0.050349   0.000000
    70  H    0.045810   0.000000
    71  H    0.058653   0.000000
    72  H   -0.007534  -0.000000
    73  H    0.054880  -0.000000
    74  H    0.046003   0.000000
    75  H    0.043594   0.000000
    76  H    0.007019   0.000000
    77  H    0.035069   0.000000
 Sum of Mulliken charges =  -0.00000  -0.00000

 Dipole moment (field-independent basis, Debye):
    X=              0.6169    Y=              7.7176    Z=              2.6163  Tot=              8.1724
 Quadrupole moment (field-independent basis, Debye-Ang):
   XX=           -204.4172   YY=           -260.3791   ZZ=           -285.7906
   XY=            -12.6910   XZ=             32.8555   YZ=              0.8397

 Normal termination of Gaussian 16 at Sat Jul 25 14:40:21 2020.
