 Gaussian 16, Revision A.03,
 Gaussian 16:  EM64L-G16RevA.03 25-Dec-2016

 ---------------------------------------------------------------
 #P uLC-wPBE/cc-pVDZ iop(3/107=0093200000, 3/108=0093200000) opt
 ---------------------------------------------------------------

 ----------------
 H37 C50 S5 N5 O5
 ----------------
 Symbolic Z-matrix:
 Charge =  0 Multiplicity = 1

 SCF Done:  E(ULC-wPBE) =  -4564.98796766     A.U. after   20 cycles
 SCF Done:  E(ULC-wPBE) =  -4565.08527229     A.U. after   14 cycles
 SCF Done:  E(ULC-wPBE) =  -4565.17183447     A.U. after   15 cycles
 SCF Done:  E(ULC-wPBE) =  -4565.19713107     A.U. after   15 cycles
 SCF Done:  E(ULC-wPBE) =  -4565.21371654     A.U. after   19 cycles
 SCF Done:  E(ULC-wPBE) =  -4565.22427223     A.U. after   18 cycles
 SCF Done:  E(ULC-wPBE) =  -4565.22830276     A.U. after   17 cycles
 SCF Done:  E(ULC-wPBE) =  -4565.22930229     A.U. after   13 cycles
 SCF Done:  E(ULC-wPBE) =  -4565.22966646     A.U. after   13 cycles
 SCF Done:  E(ULC-wPBE) =  -4565.22999999     A.U. after   13 cycles
 SCF Done:  E(ULC-wPBE) =  -4565.23016098     A.U. after   12 cycles
 SCF Done:  E(ULC-wPBE) =  -4565.23016578     A.U. after   11 cycles
 SCF Done:  E(ULC-wPBE) =  -4565.23016811     A.U. after   10 cycles
 SCF Done:  E(ULC-wPBE) =  -4565.23016892     A.U. after   10 cycles
 SCF Done:  E(ULC-wPBE) =  -4565.23017007     A.U. after   10 cycles
 SCF Done:  E(ULC-wPBE) =  -4565.23017081     A.U. after   10 cycles
 SCF Done:  E(ULC-wPBE) =  -4565.23017111     A.U. after   10 cycles
 SCF Done:  E(ULC-wPBE) =  -4565.23017117     A.U. after    7 cycles
 SCF Done:  E(ULC-wPBE) =  -4565.23017114     A.U. after    7 cycles
 SCF Done:  E(ULC-wPBE) =  -4565.23017128     A.U. after    6 cycles
 Optimization completed on the basis of negligible forces.
    -- Stationary point found.

                         Standard orientation:
 ---------------------------------------------------------------------
 Center     Atomic      Atomic             Coordinates (Angstroms)
 Number     Number       Type             X           Y           Z
 ---------------------------------------------------------------------
      1          6           0      -16.371258    5.447914   -1.034139
      2          6           0      -15.475414    6.298565   -0.369959
      3          6           0      -14.208205    5.823927   -0.020344
      4          6           0      -13.868497    4.488963   -0.350551
      5          7           0      -14.734935    3.660518   -0.994291
      6          6           0      -15.943220    4.142022   -1.318537
      7          6           0      -12.575433    3.892082   -0.035287
      8          6           0      -11.441136    4.404086    0.608943
      9          8           0      -11.431267    5.687847    1.079031
     10          6           0      -10.232072    6.125610    1.717903
     11          6           0      -10.372959    3.465077    0.710752
     12          6           0      -10.682340    2.231751    0.145567
     13         16           0      -12.300000    2.231196   -0.523883
     14          6           0       -9.833383    1.042773    0.067150
     15          6           0      -10.351072   -0.257157   -0.134585
     16          6           0       -9.494366   -1.353753   -0.197459
     17          6           0       -8.101457   -1.145828   -0.045575
     18          7           0       -7.585107    0.100020    0.142131
     19          6           0       -8.424348    1.136432    0.187495
     20          6           0       -7.118915   -2.218988   -0.075238
     21          6           0       -7.255115   -3.603953   -0.247115
     22          8           0       -8.489597   -4.158679   -0.438743
     23          6           0       -8.535116   -5.574623   -0.611091
     24          6           0       -6.015334   -4.305363   -0.205976
     25          6           0       -4.924193   -3.464998   -0.004891
     26         16           0       -5.431566   -1.796026    0.145989
     27          6           0       -3.513370   -3.840484    0.085849
     28          6           0       -3.105221   -5.161976    0.380863
     29          6           0       -1.751067   -5.480895    0.447753
     30          6           0       -0.793235   -4.459972    0.228570
     31          7           0       -1.168762   -3.182374   -0.053977
     32          6           0       -2.471560   -2.903338   -0.124417
     33          6           0        0.644133   -4.679197    0.285287
     34          6           0        1.403207   -5.830030    0.541903
     35          8           0        0.785986   -7.020844    0.807544
     36          6           0        1.636136   -8.137668    1.065434
     37          6           0        2.809376   -5.603339    0.499583
     38          6           0        3.135601   -4.280846    0.213294
     39         16           0        1.697250   -3.310237   -0.018172
     40          6           0        4.471876   -3.696994    0.097282
     41          6           0        5.616372   -4.486799   -0.159801
     42          6           0        6.873269   -3.893638   -0.251029
     43          6           0        6.983235   -2.489723   -0.093367
     44          7           0        5.891603   -1.714672    0.153144
     45          6           0        4.699301   -2.306357    0.245792
     46          6           0        8.242444   -1.766089   -0.182901
     47          6           0        9.553968   -2.201249   -0.421327
     48          8           0        9.818871   -3.529428   -0.609292
     49          6           0       11.181350   -3.882066   -0.845813
     50          6           0       10.509506   -1.144053   -0.431636
     51          6           0        9.938070    0.103516   -0.199207
     52         16           0        8.206326   -0.024696    0.021100
     53          6           0       10.617268    1.397977   -0.135641
     54          6           0       11.883539    1.611098   -0.727206
     55          6           0       12.501743    2.856075   -0.633951
     56          6           0       11.837332    3.903344    0.050354
     57          7           0       10.617747    3.715707    0.623897
     58          6           0       10.049653    2.511689    0.530950
     59          6           0       12.386835    5.244924    0.195261
     60          6           0       13.588159    5.811976   -0.250431
     61          8           0       14.488846    5.065436   -0.959289
     62          6           0       15.680182    5.730504   -1.377389
     63          6           0       13.734238    7.188917    0.113660
     64          6           0       12.646666    7.649085    0.829022
     65         16           0       11.439052    6.434881    1.070917
     66          1           0      -17.376011    5.783653   -1.325615
     67          1           0      -15.762038    7.331705   -0.123847
     68          1           0      -13.480644    6.458517    0.498737
     69          1           0      -16.613251    3.437073   -1.839642
     70          1           0      -10.410630    7.174975    2.013039
     71          1           0      -10.009420    5.522692    2.624998
     72          1           0       -9.362351    6.081547    1.026924
     73          1           0       -9.418743    3.668372    1.208923
     74          1           0      -11.437400   -0.407087   -0.227074
     75          1           0       -9.881765   -2.367632   -0.349413
     76          1           0       -7.950312    2.124631    0.311844
     77          1           0       -8.137046   -6.106910    0.280167
     78          1           0       -7.967530   -5.894267   -1.512028
     79          1           0       -9.601506   -5.830820   -0.742561
     80          1           0       -5.914048   -5.386581   -0.351138
     81          1           0       -3.856694   -5.939965    0.579036
     82          1           0       -1.419045   -6.499378    0.679667
     83          1           0       -2.721963   -1.858418   -0.378403
     84          1           0        2.269212   -7.969649    1.963763
     85          1           0        2.289530   -8.362586    0.194443
     86          1           0        0.964650   -8.995482    1.248411
     87          1           0        3.564471   -6.370337    0.704389
     88          1           0        5.514965   -5.571492   -0.309903
     89          1           0        7.769165   -4.491168   -0.455187
     90          1           0        3.850390   -1.636408    0.468340
     91          1           0       11.828302   -3.612586    0.017248
     92          1           0       11.575171   -3.394848   -1.764272
     93          1           0       11.192894   -4.978306   -0.981246
     94          1           0       11.586929   -1.287310   -0.569656
     95          1           0       12.376214    0.799521   -1.282236
     96          1           0       13.480842    3.039022   -1.091479
     97          1           0        9.071425    2.405841    1.031890
     98          1           0       15.455413    6.585490   -2.051600
     99          1           0       16.271388    4.977727   -1.928895
    100          1           0       16.270615    6.095320   -0.508787
    101          1           0       14.598464    7.813716   -0.137846
    102          1           0       12.495775    8.656915    1.230670
 ---------------------------------------------------------------------

 The electronic state is 1-A.
 Alpha  occ. eigenvalues --  -88.14905 -88.14821 -88.14782 -88.14698 -88.14529
 Alpha  occ. eigenvalues --  -18.86650 -18.86604 -18.86559 -18.86448 -18.86219
 Alpha  occ. eigenvalues --  -14.04597 -14.04594 -14.04544 -14.04474 -14.04115
 Alpha  occ. eigenvalues --  -10.01742 -10.01699 -10.01694 -10.01650 -10.01627
 Alpha  occ. eigenvalues --  -10.01611 -10.01579 -10.01478 -10.01371 -10.01232
 Alpha  occ. eigenvalues --   -9.99569  -9.99554  -9.99493  -9.99354  -9.99241
 Alpha  occ. eigenvalues --   -9.98933  -9.98894  -9.98806  -9.98601  -9.98386
 Alpha  occ. eigenvalues --   -9.98370  -9.98314  -9.98287  -9.98072  -9.97910
 Alpha  occ. eigenvalues --   -9.97576  -9.97541  -9.97443  -9.97435  -9.97256
 Alpha  occ. eigenvalues --   -9.97242  -9.97218  -9.97188  -9.97042  -9.96934
 Alpha  occ. eigenvalues --   -9.96914  -9.96848  -9.96573  -9.96477  -9.96115
 Alpha  occ. eigenvalues --   -9.96038  -9.96003  -9.95909  -9.95787  -9.95767
 Alpha  occ. eigenvalues --   -9.95731  -9.95685  -9.95531  -9.95424  -9.95305
 Alpha  occ. eigenvalues --   -7.75079  -7.74995  -7.74957  -7.74874  -7.74708
 Alpha  occ. eigenvalues --   -5.77172  -5.77099  -5.77061  -5.76978  -5.76810
 Alpha  occ. eigenvalues --   -5.76727  -5.76657  -5.76618  -5.76536  -5.76370
 Alpha  occ. eigenvalues --   -5.76346  -5.76237  -5.76198  -5.76114  -5.75950
 Alpha  occ. eigenvalues --   -1.04241  -1.04197  -1.04130  -1.04053  -1.03814
 Alpha  occ. eigenvalues --   -0.91292  -0.91228  -0.91177  -0.91077  -0.90654
 Alpha  occ. eigenvalues --   -0.85977  -0.85751  -0.85505  -0.85246  -0.85177
 Alpha  occ. eigenvalues --   -0.79510  -0.79154  -0.78796  -0.78538  -0.77262
 Alpha  occ. eigenvalues --   -0.76693  -0.76469  -0.76115  -0.75597  -0.74910
 Alpha  occ. eigenvalues --   -0.73818  -0.73528  -0.73349  -0.73283  -0.73110
 Alpha  occ. eigenvalues --   -0.72040  -0.71540  -0.70960  -0.70622  -0.70119
 Alpha  occ. eigenvalues --   -0.68527  -0.68173  -0.67607  -0.66792  -0.65856
 Alpha  occ. eigenvalues --   -0.64311  -0.63389  -0.62658  -0.62133  -0.61999
 Alpha  occ. eigenvalues --   -0.61814  -0.61392  -0.61034  -0.60518  -0.59856
 Alpha  occ. eigenvalues --   -0.56705  -0.56453  -0.56323  -0.56194  -0.55491
 Alpha  occ. eigenvalues --   -0.55420  -0.55232  -0.55058  -0.55005  -0.54795
 Alpha  occ. eigenvalues --   -0.54056  -0.53858  -0.53648  -0.53473  -0.53204
 Alpha  occ. eigenvalues --   -0.49360  -0.49294  -0.49256  -0.49210  -0.48736
 Alpha  occ. eigenvalues --   -0.48334  -0.47765  -0.47707  -0.47665  -0.47615
 Alpha  occ. eigenvalues --   -0.47558  -0.47487  -0.47453  -0.47371  -0.47221
 Alpha  occ. eigenvalues --   -0.47092  -0.46959  -0.46795  -0.46229  -0.45489
 Alpha  occ. eigenvalues --   -0.44790  -0.44425  -0.44104  -0.43841  -0.43718
 Alpha  occ. eigenvalues --   -0.43594  -0.43036  -0.42981  -0.42795  -0.42509
 Alpha  occ. eigenvalues --   -0.42405  -0.42144  -0.41922  -0.41839  -0.41587
 Alpha  occ. eigenvalues --   -0.41494  -0.41419  -0.41279  -0.40933  -0.40642
 Alpha  occ. eigenvalues --   -0.40615  -0.40290  -0.39836  -0.39615  -0.39326
 Alpha  occ. eigenvalues --   -0.39281  -0.39134  -0.38653  -0.38632  -0.38502
 Alpha  occ. eigenvalues --   -0.38343  -0.38198  -0.38011  -0.37646  -0.37398
 Alpha  occ. eigenvalues --   -0.37096  -0.35696  -0.35549  -0.35497  -0.35384
 Alpha  occ. eigenvalues --   -0.35222  -0.34862  -0.34729  -0.34590  -0.34501
 Alpha  occ. eigenvalues --   -0.34424  -0.34329  -0.34132  -0.34014  -0.33834
 Alpha  occ. eigenvalues --   -0.33809  -0.32298  -0.31840  -0.31103  -0.30505
 Alpha  occ. eigenvalues --   -0.30068  -0.30046  -0.29944  -0.29735  -0.29343
 Alpha  occ. eigenvalues --   -0.28602  -0.26669  -0.26471  -0.26269  -0.26081
 Alpha  occ. eigenvalues --   -0.25984  -0.25911  -0.25737  -0.25689  -0.25626
 Alpha  occ. eigenvalues --   -0.25492  -0.24320  -0.23537  -0.22363  -0.21066
 Alpha  occ. eigenvalues --   -0.20043
 Alpha virt. eigenvalues --   -0.05611  -0.04482  -0.03063  -0.01624  -0.00690
 Alpha virt. eigenvalues --   -0.00288  -0.00165  -0.00021   0.00293   0.00685
 Alpha virt. eigenvalues --    0.01625   0.03075   0.04341   0.05237   0.05326

  Beta  occ. eigenvalues --  -88.14905 -88.14821 -88.14782 -88.14698 -88.14529
  Beta  occ. eigenvalues --  -18.86650 -18.86604 -18.86559 -18.86448 -18.86219
  Beta  occ. eigenvalues --  -14.04597 -14.04594 -14.04544 -14.04474 -14.04115
  Beta  occ. eigenvalues --  -10.01742 -10.01699 -10.01694 -10.01650 -10.01627
  Beta  occ. eigenvalues --  -10.01611 -10.01579 -10.01478 -10.01371 -10.01232
  Beta  occ. eigenvalues --   -9.99569  -9.99554  -9.99493  -9.99354  -9.99241
  Beta  occ. eigenvalues --   -9.98933  -9.98894  -9.98806  -9.98601  -9.98386
  Beta  occ. eigenvalues --   -9.98370  -9.98314  -9.98287  -9.98072  -9.97910
  Beta  occ. eigenvalues --   -9.97576  -9.97541  -9.97443  -9.97435  -9.97256
  Beta  occ. eigenvalues --   -9.97242  -9.97218  -9.97188  -9.97042  -9.96934
  Beta  occ. eigenvalues --   -9.96914  -9.96848  -9.96573  -9.96477  -9.96115
  Beta  occ. eigenvalues --   -9.96038  -9.96003  -9.95909  -9.95787  -9.95767
  Beta  occ. eigenvalues --   -9.95731  -9.95685  -9.95531  -9.95424  -9.95305
  Beta  occ. eigenvalues --   -7.75079  -7.74995  -7.74957  -7.74874  -7.74708
  Beta  occ. eigenvalues --   -5.77172  -5.77099  -5.77061  -5.76978  -5.76810
  Beta  occ. eigenvalues --   -5.76727  -5.76657  -5.76618  -5.76536  -5.76370
  Beta  occ. eigenvalues --   -5.76346  -5.76237  -5.76198  -5.76114  -5.75950
  Beta  occ. eigenvalues --   -1.04241  -1.04197  -1.04130  -1.04053  -1.03814
  Beta  occ. eigenvalues --   -0.91292  -0.91228  -0.91177  -0.91077  -0.90654
  Beta  occ. eigenvalues --   -0.85977  -0.85751  -0.85505  -0.85246  -0.85177
  Beta  occ. eigenvalues --   -0.79510  -0.79154  -0.78796  -0.78538  -0.77262
  Beta  occ. eigenvalues --   -0.76693  -0.76469  -0.76115  -0.75597  -0.74910
  Beta  occ. eigenvalues --   -0.73818  -0.73528  -0.73349  -0.73283  -0.73110
  Beta  occ. eigenvalues --   -0.72040  -0.71540  -0.70960  -0.70622  -0.70119
  Beta  occ. eigenvalues --   -0.68527  -0.68173  -0.67607  -0.66792  -0.65856
  Beta  occ. eigenvalues --   -0.64311  -0.63389  -0.62658  -0.62133  -0.61999
  Beta  occ. eigenvalues --   -0.61814  -0.61392  -0.61034  -0.60518  -0.59856
  Beta  occ. eigenvalues --   -0.56705  -0.56453  -0.56323  -0.56194  -0.55491
  Beta  occ. eigenvalues --   -0.55420  -0.55232  -0.55058  -0.55005  -0.54795
  Beta  occ. eigenvalues --   -0.54056  -0.53858  -0.53648  -0.53473  -0.53204
  Beta  occ. eigenvalues --   -0.49360  -0.49294  -0.49256  -0.49210  -0.48736
  Beta  occ. eigenvalues --   -0.48334  -0.47765  -0.47707  -0.47665  -0.47615
  Beta  occ. eigenvalues --   -0.47558  -0.47487  -0.47453  -0.47371  -0.47221
  Beta  occ. eigenvalues --   -0.47092  -0.46959  -0.46795  -0.46229  -0.45489
  Beta  occ. eigenvalues --   -0.44790  -0.44425  -0.44104  -0.43841  -0.43718
  Beta  occ. eigenvalues --   -0.43594  -0.43036  -0.42981  -0.42795  -0.42509
  Beta  occ. eigenvalues --   -0.42405  -0.42144  -0.41922  -0.41839  -0.41587
  Beta  occ. eigenvalues --   -0.41494  -0.41419  -0.41279  -0.40933  -0.40642
  Beta  occ. eigenvalues --   -0.40615  -0.40290  -0.39836  -0.39615  -0.39326
  Beta  occ. eigenvalues --   -0.39281  -0.39134  -0.38653  -0.38632  -0.38502
  Beta  occ. eigenvalues --   -0.38343  -0.38198  -0.38011  -0.37646  -0.37398
  Beta  occ. eigenvalues --   -0.37096  -0.35696  -0.35549  -0.35497  -0.35384
  Beta  occ. eigenvalues --   -0.35222  -0.34862  -0.34729  -0.34590  -0.34501
  Beta  occ. eigenvalues --   -0.34424  -0.34329  -0.34132  -0.34014  -0.33834
  Beta  occ. eigenvalues --   -0.33809  -0.32298  -0.31840  -0.31103  -0.30505
  Beta  occ. eigenvalues --   -0.30068  -0.30046  -0.29944  -0.29735  -0.29343
  Beta  occ. eigenvalues --   -0.28602  -0.26669  -0.26471  -0.26269  -0.26081
  Beta  occ. eigenvalues --   -0.25984  -0.25911  -0.25737  -0.25689  -0.25626
  Beta  occ. eigenvalues --   -0.25492  -0.24320  -0.23537  -0.22363  -0.21066
  Beta  occ. eigenvalues --   -0.20043
  Beta virt. eigenvalues --   -0.05611  -0.04482  -0.03063  -0.01624  -0.00690
  Beta virt. eigenvalues --   -0.00288  -0.00165  -0.00021   0.00293   0.00685
  Beta virt. eigenvalues --    0.01625   0.03075   0.04341   0.05237   0.05326

 Mulliken charges and spin densities:
               1          2
     1  C   -0.028629   0.000000
     2  C    0.077913   0.000000
     3  C    0.001230  -0.000000
     4  C    0.132708  -0.000000
     5  N   -0.221305   0.000000
     6  C    0.092574  -0.000000
     7  C   -0.146558   0.000000
     8  C    0.116137  -0.000000
     9  O   -0.245649   0.000000
    10  C    0.066859   0.000000
    11  C    0.007668   0.000000
    12  C   -0.148681   0.000000
    13  S    0.172435   0.000000
    14  C    0.016603  -0.000000
    15  C    0.058766   0.000000
    16  C    0.020008  -0.000000
    17  C    0.142172   0.000000
    18  N   -0.220459  -0.000000
    19  C    0.086086   0.000000
    20  C   -0.150443   0.000000
    21  C    0.111727  -0.000000
    22  O   -0.244664   0.000000
    23  C    0.067617  -0.000000
    24  C    0.008790  -0.000000
    25  C   -0.151484   0.000000
    26  S    0.179984   0.000000
    27  C    0.020565  -0.000000
    28  C    0.055276  -0.000000
    29  C    0.019912   0.000000
    30  C    0.144954   0.000000
    31  N   -0.219558   0.000000
    32  C    0.087299  -0.000000
    33  C   -0.151801  -0.000000
    34  C    0.110101  -0.000000
    35  O   -0.245430  -0.000000
    36  C    0.067715   0.000000
    37  C    0.009725   0.000000
    38  C   -0.152379  -0.000000
    39  S    0.184179  -0.000000
    40  C    0.019021   0.000000
    41  C    0.056067  -0.000000
    42  C    0.019482  -0.000000
    43  C    0.145207   0.000000
    44  N   -0.219438   0.000000
    45  C    0.088095   0.000000
    46  C   -0.152037  -0.000000
    47  C    0.110061  -0.000000
    48  O   -0.245475   0.000000
    49  C    0.067695   0.000000
    50  C    0.009841  -0.000000
    51  C   -0.151655  -0.000000
    52  S    0.184342   0.000000
    53  C    0.018263   0.000000
    54  C    0.055532   0.000000
    55  C    0.018796   0.000000
    56  C    0.156447  -0.000000
    57  N   -0.220553  -0.000000
    58  C    0.086670   0.000000
    59  C   -0.166379  -0.000000
    60  C    0.095311   0.000000
    61  O   -0.243358   0.000000
    62  C    0.064330  -0.000000
    63  C    0.038472   0.000000
    64  C   -0.122585   0.000000
    65  S    0.192676   0.000000
    66  H   -0.020579   0.000000
    67  H   -0.016157   0.000000
    68  H   -0.021228  -0.000000
    69  H   -0.004784  -0.000000
    70  H    0.048947  -0.000000
    71  H    0.048209  -0.000000
    72  H    0.047119  -0.000000
    73  H   -0.018996  -0.000000
    74  H   -0.014569   0.000000
    75  H   -0.023117  -0.000000
    76  H   -0.010739   0.000000
    77  H    0.044924   0.000000
    78  H    0.047732  -0.000000
    79  H    0.050305   0.000000
    80  H   -0.023112  -0.000000
    81  H   -0.031154  -0.000000
    82  H   -0.024769   0.000000
    83  H    0.004351   0.000000
    84  H    0.048042  -0.000000
    85  H    0.045117  -0.000000
    86  H    0.049034  -0.000000
    87  H   -0.023066  -0.000000
    88  H   -0.031191  -0.000000
    89  H   -0.024653   0.000000
    90  H    0.004671   0.000000
    91  H    0.047771  -0.000000
    92  H    0.045505  -0.000000
    93  H    0.048973   0.000000
    94  H   -0.023046  -0.000000
    95  H   -0.031007   0.000000
    96  H   -0.023815  -0.000000
    97  H    0.004406  -0.000000
    98  H    0.046684   0.000000
    99  H    0.049067   0.000000
   100  H    0.046223  -0.000000
   101  H   -0.014763   0.000000
   102  H    0.016874  -0.000000
 Sum of Mulliken charges =  -0.00000  -0.00000

 Dipole moment (field-independent basis, Debye):
    X=              6.7571    Y=             -4.4436    Z=             -0.1324  Tot=              8.0883
 Quadrupole moment (field-independent basis, Debye-Ang):
   XX=           -260.8087   YY=           -284.9518   ZZ=           -412.7757
   XY=              1.8378   XZ=            -33.7696   YZ=              3.7203

 Normal termination of Gaussian 16 at Sat Jul 25 13:02:48 2020.
