 Gaussian 16, Revision A.03,
 Gaussian 16:  EM64L-G16RevA.03 25-Dec-2016

 ---------------------------------------------------------------
 #P uLC-wPBE/cc-pVDZ iop(3/107=0369100000, 3/108=0369100000) opt
 ---------------------------------------------------------------

 -----------------
 H17 C45 S5 N5 F10
 -----------------
 Symbolic Z-matrix:
 Charge =  0 Multiplicity = 1

 SCF Done:  E(ULC-wPBE) =  -4985.44238782     A.U. after   16 cycles
 SCF Done:  E(ULC-wPBE) =  -4985.51399049     A.U. after   14 cycles
 SCF Done:  E(ULC-wPBE) =  -4985.56059923     A.U. after   15 cycles
 SCF Done:  E(ULC-wPBE) =  -4985.57529998     A.U. after   14 cycles
 SCF Done:  E(ULC-wPBE) =  -4985.57828486     A.U. after   14 cycles
 SCF Done:  E(ULC-wPBE) =  -4985.57851751     A.U. after   13 cycles
 SCF Done:  E(ULC-wPBE) =  -4985.57958661     A.U. after   12 cycles
 SCF Done:  E(ULC-wPBE) =  -4985.58009816     A.U. after   14 cycles
 SCF Done:  E(ULC-wPBE) =  -4985.58023755     A.U. after   13 cycles
 SCF Done:  E(ULC-wPBE) =  -4985.58029196     A.U. after   12 cycles
 SCF Done:  E(ULC-wPBE) =  -4985.58032370     A.U. after   12 cycles
 SCF Done:  E(ULC-wPBE) =  -4985.58033201     A.U. after   12 cycles
 SCF Done:  E(ULC-wPBE) =  -4985.58033752     A.U. after   11 cycles
 SCF Done:  E(ULC-wPBE) =  -4985.58034173     A.U. after   11 cycles
 SCF Done:  E(ULC-wPBE) =  -4985.58034459     A.U. after   11 cycles
 SCF Done:  E(ULC-wPBE) =  -4985.58034620     A.U. after   11 cycles
 SCF Done:  E(ULC-wPBE) =  -4985.58034691     A.U. after   11 cycles
 SCF Done:  E(ULC-wPBE) =  -4985.58034725     A.U. after   11 cycles
 SCF Done:  E(ULC-wPBE) =  -4985.58034729     A.U. after   11 cycles
 SCF Done:  E(ULC-wPBE) =  -4985.58034727     A.U. after    8 cycles
 Optimization completed.
    -- Stationary point found.

                         Standard orientation:
 ---------------------------------------------------------------------
 Center     Atomic      Atomic             Coordinates (Angstroms)
 Number     Number       Type             X           Y           Z
 ---------------------------------------------------------------------
      1          6           0       19.112587    1.004065   -0.080091
      2          6           0       18.219342   -0.056652    0.023603
      3          7           0       16.909587    0.103620    0.173349
      4          6           0       16.404479    1.340687    0.226498
      5          6           0       17.236856    2.452468    0.083581
      6          9           0       16.719462    3.684913    0.051666
      7          6           0       18.602740    2.293620   -0.057471
      8          6           0       14.946121    1.434473    0.381673
      9          6           0       14.139780    2.388955    0.941002
     10          9           0       14.585234    3.505978    1.517519
     11          6           0       12.756327    2.086193    0.919702
     12          6           0       12.517028    0.869298    0.342303
     13         16           0       13.979369    0.109201   -0.162365
     14          6           0       11.215960    0.214513    0.142628
     15          6           0       10.058592    0.968131   -0.080842
     16          7           0        8.858854    0.440131   -0.268707
     17          6           0        8.711511   -0.889283   -0.259231
     18          6           0        9.812570   -1.711021   -0.011478
     19          9           0        9.660879   -3.035150    0.083581
     20          6           0       11.067775   -1.170561    0.181109
     21          6           0        7.346981   -1.390345   -0.461920
     22          6           0        6.865137   -2.564526   -0.976391
     23          9           0        7.630351   -3.549537   -1.447893
     24          6           0        5.453359   -2.654632   -1.028865
     25          6           0        4.857741   -1.517040   -0.555917
     26         16           0        6.025548   -0.351817   -0.057395
     27          6           0        3.417697   -1.239887   -0.457475
     28          6           0        2.898767    0.053027   -0.580162
     29          7           0        1.610476    0.349236   -0.502004
     30          6           0        0.717628   -0.623995   -0.300302
     31          6           0        1.159883   -1.944768   -0.176173
     32          9           0        0.271231   -2.932869    0.028897
     33          6           0        2.497210   -2.265274   -0.245989
     34          6           0       -0.696496   -0.236060   -0.217623
     35          6           0       -1.215672    1.035036   -0.280611
     36          9           0       -0.493538    2.141913   -0.411885
     37          6           0       -2.625191    1.112107   -0.181688
     38          6           0       -3.191414   -0.123955   -0.040308
     39         16           0       -2.000302   -1.366919   -0.037207
     40          6           0       -4.618768   -0.449132    0.092955
     41          6           0       -5.596253    0.342692   -0.519108
     42          7           0       -6.896111    0.103228   -0.439582
     43          6           0       -7.334194   -0.954738    0.252013
     44          6           0       -6.423564   -1.776350    0.919343
     45          9           0       -6.854527   -2.785019    1.681969
     46          6           0       -5.066679   -1.538077    0.838428
     47          6           0       -8.789081   -1.139263    0.299594
     48          6           0       -9.570905   -2.252791    0.456204
     49          9           0       -9.096303   -3.491966    0.587228
     50          6           0      -10.965543   -2.011180    0.415576
     51          6           0      -11.240774   -0.686676    0.211236
     52         16           0       -9.798291    0.245340    0.067260
     53          6           0      -12.563550   -0.052701    0.109963
     54          6           0      -13.656452   -0.552348    0.825213
     55          7           0      -14.871660   -0.027133    0.780142
     56          6           0      -15.099105    1.050444    0.021486
     57          6           0      -14.066938    1.590522   -0.748975
     58          9           0      -14.304054    2.613780   -1.575005
     59          6           0      -12.796531    1.053850   -0.704777
     60          6           0      -16.473141    1.566930    0.014819
     61          6           0      -16.971218    2.828822   -0.171865
     62          9           0      -16.217547    3.908827   -0.388232
     63          6           0      -18.383150    2.930653   -0.072478
     64          6           0      -18.939449    1.718768    0.204595
     65         16           0      -17.772372    0.477816    0.357430
     66          1           0       20.183164    0.823725   -0.190773
     67          1           0       18.574386   -1.091243   -0.015368
     68          1           0       19.234138    3.178043   -0.160777
     69          1           0       11.998545    2.736720    1.354492
     70          1           0       10.114675    2.060232   -0.123577
     71          1           0       11.905439   -1.839880    0.388812
     72          1           0        4.928090   -3.516228   -1.439374
     73          1           0        3.571037    0.897952   -0.765540
     74          1           0        2.801453   -3.305287   -0.116641
     75          1           0       -3.167264    2.056704   -0.187633
     76          1           0       -5.303815    1.210271   -1.118645
     77          1           0       -4.382623   -2.190262    1.385628
     78          1           0      -11.709053   -2.803084    0.495712
     79          1           0      -13.531958   -1.418435    1.482746
     80          1           0      -12.015874    1.490029   -1.331822
     81          1           0      -18.928132    3.865588   -0.194455
     82          1           0      -19.996187    1.491814    0.337947
 ---------------------------------------------------------------------

 The electronic state is 1-A.
 Alpha  occ. eigenvalues --  -88.32435 -88.32129 -88.32066 -88.32002 -88.31158
 Alpha  occ. eigenvalues --  -24.51419 -24.50490 -24.50480 -24.50251 -24.49997
 Alpha  occ. eigenvalues --  -24.49962 -24.49860 -24.49844 -24.49466 -24.49151
 Alpha  occ. eigenvalues --  -14.22438 -14.22409 -14.22043 -14.21932 -14.21911
 Alpha  occ. eigenvalues --  -10.21368 -10.21302 -10.21274 -10.20955 -10.20791
 Alpha  occ. eigenvalues --  -10.20540 -10.20505 -10.20444 -10.20418 -10.19609
 Alpha  occ. eigenvalues --  -10.18029 -10.17844 -10.17804 -10.17597 -10.17314
 Alpha  occ. eigenvalues --  -10.16656 -10.16567 -10.16463 -10.16400 -10.15958
 Alpha  occ. eigenvalues --  -10.15884 -10.15765 -10.15605 -10.15502 -10.15497
 Alpha  occ. eigenvalues --  -10.15444 -10.15410 -10.15373 -10.15347 -10.15274
 Alpha  occ. eigenvalues --  -10.15269 -10.15033 -10.14735 -10.14665 -10.14586
 Alpha  occ. eigenvalues --  -10.14578 -10.14398 -10.14336 -10.14222 -10.13558
 Alpha  occ. eigenvalues --  -10.12899 -10.12889 -10.12815 -10.12697 -10.11873
 Alpha  occ. eigenvalues --   -7.93088  -7.92774  -7.92715  -7.92653  -7.91822
 Alpha  occ. eigenvalues --   -5.94747  -5.94427  -5.94368  -5.94306  -5.94210
 Alpha  occ. eigenvalues --   -5.93899  -5.93842  -5.93780  -5.93762  -5.93465
 Alpha  occ. eigenvalues --   -5.93453  -5.93395  -5.93331  -5.92936  -5.92519
 Alpha  occ. eigenvalues --   -1.35970  -1.35453  -1.35450  -1.35214  -1.34925
 Alpha  occ. eigenvalues --   -1.34542  -1.34457  -1.34395  -1.34337  -1.33724
 Alpha  occ. eigenvalues --   -1.10971  -1.10940  -1.10708  -1.10451  -1.10426
 Alpha  occ. eigenvalues --   -1.05571  -1.05311  -1.05005  -1.04854  -1.03723
 Alpha  occ. eigenvalues --   -0.98358  -0.97874  -0.97320  -0.96970  -0.96031
 Alpha  occ. eigenvalues --   -0.94415  -0.94167  -0.93794  -0.93266  -0.92900
 Alpha  occ. eigenvalues --   -0.90441  -0.89479  -0.89238  -0.88793  -0.88765
 Alpha  occ. eigenvalues --   -0.88362  -0.87577  -0.87122  -0.85932  -0.84700
 Alpha  occ. eigenvalues --   -0.81745  -0.80553  -0.79753  -0.79144  -0.78806
 Alpha  occ. eigenvalues --   -0.78763  -0.78165  -0.77941  -0.77898  -0.77147
 Alpha  occ. eigenvalues --   -0.72717  -0.72324  -0.71963  -0.71785  -0.71558
 Alpha  occ. eigenvalues --   -0.71410  -0.71210  -0.71013  -0.70958  -0.70587
 Alpha  occ. eigenvalues --   -0.69750  -0.69356  -0.68991  -0.68265  -0.67657
 Alpha  occ. eigenvalues --   -0.66308  -0.66145  -0.65865  -0.65803  -0.65407
 Alpha  occ. eigenvalues --   -0.65339  -0.65025  -0.64724  -0.64584  -0.64481
 Alpha  occ. eigenvalues --   -0.62321  -0.62074  -0.61907  -0.61546  -0.61440
 Alpha  occ. eigenvalues --   -0.61298  -0.61175  -0.60994  -0.60907  -0.60555
 Alpha  occ. eigenvalues --   -0.59984  -0.59883  -0.59774  -0.59711  -0.59145
 Alpha  occ. eigenvalues --   -0.58720  -0.58388  -0.58193  -0.57896  -0.57700
 Alpha  occ. eigenvalues --   -0.57128  -0.57017  -0.56897  -0.56607  -0.56222
 Alpha  occ. eigenvalues --   -0.55760  -0.55367  -0.55001  -0.54845  -0.54647
 Alpha  occ. eigenvalues --   -0.54507  -0.54188  -0.54126  -0.54036  -0.53871
 Alpha  occ. eigenvalues --   -0.53666  -0.53599  -0.53294  -0.53089  -0.52866
 Alpha  occ. eigenvalues --   -0.52678  -0.51976  -0.51596  -0.51235  -0.50916
 Alpha  occ. eigenvalues --   -0.50489  -0.50404  -0.50210  -0.50094  -0.49672
 Alpha  occ. eigenvalues --   -0.49628  -0.49133  -0.48886  -0.48749  -0.48594
 Alpha  occ. eigenvalues --   -0.47923  -0.47023  -0.46838  -0.46823  -0.46464
 Alpha  occ. eigenvalues --   -0.46070  -0.44739  -0.43783  -0.42800  -0.41773
 Alpha  occ. eigenvalues --   -0.41162  -0.39586  -0.39338  -0.39196  -0.39094
 Alpha  occ. eigenvalues --   -0.38935  -0.38776  -0.38706  -0.38529  -0.38237
 Alpha  occ. eigenvalues --   -0.38131  -0.36606  -0.36212  -0.36112  -0.36102
 Alpha  occ. eigenvalues --   -0.35310  -0.34893  -0.33790  -0.32195  -0.30915
 Alpha  occ. eigenvalues --   -0.29852
 Alpha virt. eigenvalues --   -0.02660  -0.01351   0.00150   0.01838   0.03037
 Alpha virt. eigenvalues --    0.04151   0.04263   0.04636   0.04742   0.05308
 Alpha virt. eigenvalues --    0.06067   0.07491   0.08981   0.10037   0.10958

  Beta  occ. eigenvalues --  -88.32435 -88.32129 -88.32066 -88.32002 -88.31158
  Beta  occ. eigenvalues --  -24.51419 -24.50490 -24.50480 -24.50251 -24.49997
  Beta  occ. eigenvalues --  -24.49962 -24.49860 -24.49844 -24.49466 -24.49151
  Beta  occ. eigenvalues --  -14.22438 -14.22409 -14.22043 -14.21932 -14.21911
  Beta  occ. eigenvalues --  -10.21368 -10.21302 -10.21274 -10.20955 -10.20791
  Beta  occ. eigenvalues --  -10.20540 -10.20505 -10.20444 -10.20418 -10.19609
  Beta  occ. eigenvalues --  -10.18029 -10.17844 -10.17804 -10.17597 -10.17314
  Beta  occ. eigenvalues --  -10.16656 -10.16567 -10.16463 -10.16400 -10.15958
  Beta  occ. eigenvalues --  -10.15884 -10.15765 -10.15605 -10.15502 -10.15497
  Beta  occ. eigenvalues --  -10.15444 -10.15410 -10.15373 -10.15347 -10.15274
  Beta  occ. eigenvalues --  -10.15269 -10.15033 -10.14735 -10.14665 -10.14586
  Beta  occ. eigenvalues --  -10.14578 -10.14398 -10.14336 -10.14222 -10.13558
  Beta  occ. eigenvalues --  -10.12899 -10.12889 -10.12815 -10.12697 -10.11873
  Beta  occ. eigenvalues --   -7.93088  -7.92774  -7.92715  -7.92653  -7.91822
  Beta  occ. eigenvalues --   -5.94747  -5.94427  -5.94368  -5.94306  -5.94210
  Beta  occ. eigenvalues --   -5.93899  -5.93842  -5.93780  -5.93762  -5.93465
  Beta  occ. eigenvalues --   -5.93453  -5.93395  -5.93331  -5.92936  -5.92519
  Beta  occ. eigenvalues --   -1.35970  -1.35453  -1.35450  -1.35214  -1.34925
  Beta  occ. eigenvalues --   -1.34542  -1.34457  -1.34395  -1.34337  -1.33724
  Beta  occ. eigenvalues --   -1.10971  -1.10940  -1.10708  -1.10451  -1.10426
  Beta  occ. eigenvalues --   -1.05571  -1.05311  -1.05005  -1.04854  -1.03723
  Beta  occ. eigenvalues --   -0.98358  -0.97874  -0.97320  -0.96970  -0.96031
  Beta  occ. eigenvalues --   -0.94415  -0.94167  -0.93794  -0.93266  -0.92900
  Beta  occ. eigenvalues --   -0.90441  -0.89479  -0.89238  -0.88793  -0.88765
  Beta  occ. eigenvalues --   -0.88362  -0.87577  -0.87122  -0.85932  -0.84700
  Beta  occ. eigenvalues --   -0.81745  -0.80553  -0.79753  -0.79144  -0.78806
  Beta  occ. eigenvalues --   -0.78763  -0.78165  -0.77941  -0.77898  -0.77147
  Beta  occ. eigenvalues --   -0.72717  -0.72324  -0.71963  -0.71785  -0.71558
  Beta  occ. eigenvalues --   -0.71410  -0.71210  -0.71013  -0.70958  -0.70587
  Beta  occ. eigenvalues --   -0.69750  -0.69356  -0.68991  -0.68265  -0.67657
  Beta  occ. eigenvalues --   -0.66308  -0.66145  -0.65865  -0.65803  -0.65407
  Beta  occ. eigenvalues --   -0.65339  -0.65025  -0.64724  -0.64584  -0.64481
  Beta  occ. eigenvalues --   -0.62321  -0.62074  -0.61907  -0.61546  -0.61440
  Beta  occ. eigenvalues --   -0.61298  -0.61175  -0.60994  -0.60907  -0.60555
  Beta  occ. eigenvalues --   -0.59984  -0.59883  -0.59774  -0.59711  -0.59145
  Beta  occ. eigenvalues --   -0.58720  -0.58388  -0.58193  -0.57896  -0.57700
  Beta  occ. eigenvalues --   -0.57128  -0.57017  -0.56897  -0.56607  -0.56222
  Beta  occ. eigenvalues --   -0.55760  -0.55367  -0.55001  -0.54845  -0.54647
  Beta  occ. eigenvalues --   -0.54507  -0.54188  -0.54126  -0.54036  -0.53871
  Beta  occ. eigenvalues --   -0.53666  -0.53599  -0.53294  -0.53089  -0.52866
  Beta  occ. eigenvalues --   -0.52678  -0.51976  -0.51596  -0.51235  -0.50916
  Beta  occ. eigenvalues --   -0.50489  -0.50404  -0.50210  -0.50094  -0.49672
  Beta  occ. eigenvalues --   -0.49628  -0.49133  -0.48886  -0.48749  -0.48594
  Beta  occ. eigenvalues --   -0.47923  -0.47023  -0.46838  -0.46823  -0.46464
  Beta  occ. eigenvalues --   -0.46070  -0.44739  -0.43783  -0.42800  -0.41773
  Beta  occ. eigenvalues --   -0.41162  -0.39586  -0.39338  -0.39196  -0.39094
  Beta  occ. eigenvalues --   -0.38935  -0.38776  -0.38706  -0.38529  -0.38237
  Beta  occ. eigenvalues --   -0.38131  -0.36606  -0.36212  -0.36112  -0.36102
  Beta  occ. eigenvalues --   -0.35310  -0.34893  -0.33790  -0.32195  -0.30915
  Beta  occ. eigenvalues --   -0.29852
  Beta virt. eigenvalues --   -0.02660  -0.01351   0.00150   0.01838   0.03037
  Beta virt. eigenvalues --    0.04151   0.04263   0.04636   0.04742   0.05308
  Beta virt. eigenvalues --    0.06067   0.07491   0.08981   0.10037   0.10958

 Mulliken charges and spin densities:
               1          2
     1  C   -0.043647   0.000000
     2  C    0.082614  -0.000000
     3  N   -0.201718  -0.000000
     4  C    0.072334   0.000000
     5  C    0.102856   0.000000
     6  F   -0.112893  -0.000000
     7  C    0.051650  -0.000000
     8  C   -0.177077  -0.000000
     9  C    0.119679   0.000000
    10  F   -0.109758  -0.000000
    11  C    0.021330  -0.000000
    12  C   -0.161769   0.000000
    13  S    0.223597   0.000000
    14  C   -0.026442  -0.000000
    15  C    0.092441   0.000000
    16  N   -0.198790   0.000000
    17  C    0.079229  -0.000000
    18  C    0.111593   0.000000
    19  F   -0.109718  -0.000000
    20  C    0.061279  -0.000000
    21  C   -0.181524  -0.000000
    22  C    0.116835   0.000000
    23  F   -0.109053  -0.000000
    24  C    0.021120  -0.000000
    25  C   -0.162584   0.000000
    26  S    0.229514   0.000000
    27  C   -0.020887  -0.000000
    28  C    0.084374  -0.000000
    29  N   -0.185628   0.000000
    30  C    0.080126  -0.000000
    31  C    0.113709  -0.000000
    32  F   -0.123977  -0.000000
    33  C    0.061592   0.000000
    34  C   -0.202974   0.000000
    35  C    0.158727  -0.000000
    36  F   -0.094758  -0.000000
    37  C    0.022792   0.000000
    38  C   -0.159487  -0.000000
    39  S    0.191386   0.000000
    40  C   -0.023774   0.000000
    41  C    0.093002   0.000000
    42  N   -0.199137  -0.000000
    43  C    0.080169   0.000000
    44  C    0.112150  -0.000000
    45  F   -0.109047   0.000000
    46  C    0.060105  -0.000000
    47  C   -0.182041   0.000000
    48  C    0.116191  -0.000000
    49  F   -0.109071  -0.000000
    50  C    0.023077  -0.000000
    51  C   -0.160254   0.000000
    52  S    0.224791  -0.000000
    53  C   -0.028267  -0.000000
    54  C    0.090108   0.000000
    55  N   -0.195822   0.000000
    56  C    0.083000  -0.000000
    57  C    0.112646  -0.000000
    58  F   -0.110025   0.000000
    59  C    0.059421   0.000000
    60  C   -0.189484  -0.000000
    61  C    0.100590   0.000000
    62  F   -0.114119  -0.000000
    63  C    0.039500   0.000000
    64  C   -0.134948  -0.000000
    65  S    0.213872   0.000000
    66  H    0.019727   0.000000
    67  H    0.025649   0.000000
    68  H    0.031352   0.000000
    69  H    0.019808  -0.000000
    70  H    0.022579   0.000000
    71  H    0.031339   0.000000
    72  H    0.017429  -0.000000
    73  H    0.030376  -0.000000
    74  H    0.022132  -0.000000
    75  H    0.019778   0.000000
    76  H    0.022629  -0.000000
    77  H    0.030358  -0.000000
    78  H    0.020043   0.000000
    79  H    0.021172  -0.000000
    80  H    0.030165   0.000000
    81  H    0.020716   0.000000
    82  H    0.046021   0.000000
 Sum of Mulliken charges =  -0.00000  -0.00000

 Dipole moment (field-independent basis, Debye):
    X=              4.6462    Y=             -0.9043    Z=              0.0847  Tot=              4.7341
 Quadrupole moment (field-independent basis, Debye-Ang):
   XX=           -257.4365   YY=           -389.6748   ZZ=           -397.6483
   XY=              3.5684   XZ=             -2.6216   YZ=              0.0486

 Normal termination of Gaussian 16 at Fri Jul 24 08:18:19 2020.
