 Gaussian 16, Revision A.03,
 Gaussian 16:  EM64L-G16RevA.03 25-Dec-2016

 ---------------------------------------------------------------
 #P uLC-wPBE/cc-pVDZ iop(3/107=0296400000, 3/108=0296400000) opt
 ---------------------------------------------------------------

 -------------
 H37 C63 S7 N7
 -------------
 Symbolic Z-matrix:
 Charge =  0 Multiplicity = 1

 SCF Done:  E(ULC-wPBE) =  -5590.49506957     A.U. after   18 cycles
 SCF Done:  E(ULC-wPBE) =  -5590.58682666     A.U. after   15 cycles
 SCF Done:  E(ULC-wPBE) =  -5590.67548274     A.U. after   16 cycles
 SCF Done:  E(ULC-wPBE) =  -5590.69877238     A.U. after   14 cycles
 SCF Done:  E(ULC-wPBE) =  -5590.70371546     A.U. after   16 cycles
 SCF Done:  E(ULC-wPBE) =  -5590.70452209     A.U. after   15 cycles
 SCF Done:  E(ULC-wPBE) =  -5590.70491032     A.U. after   14 cycles
 SCF Done:  E(ULC-wPBE) =  -5590.70516919     A.U. after   14 cycles
 SCF Done:  E(ULC-wPBE) =  -5590.70528545     A.U. after   12 cycles
 SCF Done:  E(ULC-wPBE) =  -5590.70534169     A.U. after   12 cycles
 SCF Done:  E(ULC-wPBE) =  -5590.70542745     A.U. after   12 cycles
 SCF Done:  E(ULC-wPBE) =  -5590.70543035     A.U. after   11 cycles
 SCF Done:  E(ULC-wPBE) =  -5590.70543240     A.U. after   11 cycles
 SCF Done:  E(ULC-wPBE) =  -5590.70543452     A.U. after   11 cycles
 SCF Done:  E(ULC-wPBE) =  -5590.70543533     A.U. after   11 cycles
 SCF Done:  E(ULC-wPBE) =  -5590.70543588     A.U. after   10 cycles
 SCF Done:  E(ULC-wPBE) =  -5590.70543597     A.U. after    8 cycles
 SCF Done:  E(ULC-wPBE) =  -5590.70543612     A.U. after    7 cycles
 SCF Done:  E(ULC-wPBE) =  -5590.70543616     A.U. after    7 cycles
 SCF Done:  E(ULC-wPBE) =  -5590.70543615     A.U. after    6 cycles
 Optimization completed.
    -- Stationary point found.

                         Standard orientation:
 ---------------------------------------------------------------------
 Center     Atomic      Atomic             Coordinates (Angstroms)
 Number     Number       Type             X           Y           Z
 ---------------------------------------------------------------------
      1          6           0      -27.332316    2.339381   -0.376694
      2          6           0      -26.969202    1.724197    0.822436
      3          6           0      -25.643453    1.373619    1.057578
      4          6           0      -24.661966    1.635152    0.092130
      5          6           0      -25.031867    2.251852   -1.109201
      6          6           0      -26.359880    2.601895   -1.341180
      7          6           0      -23.265931    1.247826    0.380216
      8          7           0      -22.895286    0.657917    1.486243
      9          6           0      -21.549449    0.417344    1.486619
     10          6           0      -20.850162    0.819380    0.376327
     11         16           0      -21.962308    1.548414   -0.735860
     12          6           0      -19.409944    0.690811    0.097002
     13          6           0      -18.482879    0.719947    1.149051
     14          6           0      -17.122443    0.576526    0.902754
     15          6           0      -16.646633    0.412004   -0.403494
     16          6           0      -17.568105    0.392678   -1.458613
     17          6           0      -18.927629    0.527105   -1.210632
     18          6           0      -15.211452    0.262555   -0.710965
     19          7           0      -14.746607    0.131941   -1.925970
     20          6           0      -13.385174    0.010723   -1.919046
     21          6           0      -12.768640    0.044295   -0.693084
     22         16           0      -13.985445    0.238330    0.526053
     23          6           0      -11.333177   -0.057067   -0.380022
     24          6           0      -10.774664    0.602850    0.725314
     25          6           0       -9.416642    0.511542    0.999709
     26          6           0       -8.572059   -0.239658    0.171958
     27          6           0       -9.124763   -0.901734   -0.930720
     28          6           0      -10.485830   -0.816877   -1.199564
     29          6           0       -7.134453   -0.306110    0.496949
     30          7           0       -6.605268    0.282478    1.537578
     31          6           0       -5.258093    0.058697    1.594226
     32          6           0       -4.717385   -0.709530    0.593318
     33         16           0       -5.990142   -1.175296   -0.487109
     34          6           0       -3.315140   -1.114617    0.397102
     35          6           0       -2.274310   -0.276226    0.822109
     36          6           0       -0.946397   -0.655339    0.664395
     37          6           0       -0.618958   -1.878054    0.066496
     38          6           0       -1.655375   -2.714189   -0.368830
     39          6           0       -2.981744   -2.338516   -0.202988
     40          6           0        0.776391   -2.316962   -0.125997
     41          7           0        1.102151   -3.442289   -0.706152
     42          6           0        2.459655   -3.596508   -0.748867
     43          6           0        3.212770   -2.588946   -0.199370
     44         16           0        2.138263   -1.374099    0.412335
     45          6           0        4.678391   -2.479561   -0.105182
     46          6           0        5.467453   -3.635228    0.007256
     47          6           0        6.851478   -3.549152    0.073402
     48          6           0        7.490690   -2.302481    0.042108
     49          6           0        6.707642   -1.146995   -0.060038
     50          6           0        5.322353   -1.234713   -0.136085
     51          6           0        8.963223   -2.256849    0.121943
     52          7           0        9.711023   -3.325047    0.216660
     53          6           0       11.035486   -2.992078    0.273975
     54          6           0       11.338212   -1.654113    0.223512
     55         16           0        9.857487   -0.762612    0.093702
     56          6           0       12.659297   -1.004707    0.268201
     57          6           0       12.834532    0.262326    0.845336
     58          6           0       14.088108    0.857257    0.893748
     59          6           0       15.209016    0.199310    0.370776
     60          6           0       15.039332   -1.064693   -0.206427
     61          6           0       13.782347   -1.655434   -0.262905
     62          6           0       16.522898    0.866492    0.445463
     63          7           0       16.699326    2.046985    0.978923
     64          6           0       18.011985    2.422469    0.913802
     65          6           0       18.879043    1.535971    0.325095
     66         16           0       17.979071    0.142900   -0.178354
     67          6           0       20.331495    1.665997    0.118303
     68          6           0       21.177738    0.546839    0.130611
     69          6           0       22.547414    0.685886   -0.050862
     70          6           0       23.115023    1.951723   -0.244771
     71          6           0       22.274814    3.071066   -0.259092
     72          6           0       20.902714    2.930275   -0.086410
     73          6           0       24.576256    2.054918   -0.430210
     74          7           0       25.373523    1.019464   -0.433344
     75          6           0       26.675354    1.403344   -0.623625
     76          6           0       26.886617    2.744437   -0.768589
     77         16           0       25.387804    3.580289   -0.662875
     78          1           0      -28.376273    2.614898   -0.560287
     79          1           0      -27.728298    1.515172    1.583748
     80          1           0      -25.338332    0.890839    1.990567
     81          1           0      -24.278274    2.463211   -1.876672
     82          1           0      -26.636543    3.083758   -2.284750
     83          1           0      -21.101604   -0.096632    2.341788
     84          1           0      -18.831549    0.877138    2.174568
     85          1           0      -16.423943    0.607061    1.746715
     86          1           0      -17.190698    0.262813   -2.476957
     87          1           0      -19.632872    0.489956   -2.048245
     88          1           0      -12.854571   -0.080320   -2.870943
     89          1           0      -11.414153    1.211613    1.374038
     90          1           0       -8.978908    1.027233    1.859218
     91          1           0       -8.490270   -1.506419   -1.588614
     92          1           0      -10.902805   -1.365808   -2.049722
     93          1           0       -4.685158    0.470852    2.429558
     94          1           0       -2.508353    0.696844    1.265206
     95          1           0       -0.156354    0.024052    1.003933
     96          1           0       -1.393400   -3.668735   -0.834151
     97          1           0       -3.777209   -3.015864   -0.532855
     98          1           0        2.879249   -4.484202   -1.230259
     99          1           0        4.985174   -4.616449    0.062751
    100          1           0        7.468593   -4.447825    0.162601
    101          1           0        7.179666   -0.158421   -0.088886
    102          1           0        4.730790   -0.318227   -0.235930
    103          1           0       11.779493   -3.786437    0.380427
    104          1           0       11.974476    0.785515    1.277731
    105          1           0       14.227390    1.843700    1.345213
    106          1           0       15.896525   -1.598599   -0.632080
    107          1           0       13.666294   -2.631298   -0.744797
    108          1           0       18.313210    3.380785    1.345973
    109          1           0       20.756685   -0.450338    0.300312
    110          1           0       23.209338   -0.184774   -0.039232
    111          1           0       22.689565    4.072712   -0.419427
    112          1           0       20.259962    3.815131   -0.130329
    113          1           0       27.459359    0.641762   -0.649767
    114          1           0       27.826412    3.274240   -0.928817
 ---------------------------------------------------------------------

 Alpha  occ. eigenvalues --   -7.88504  -7.88502  -7.88391  -7.88049  -5.90363
 Alpha  occ. eigenvalues --   -5.90362  -5.90359  -5.90310  -5.90305  -5.90199
 Alpha  occ. eigenvalues --   -5.89891  -5.89890  -5.89888  -5.89858  -5.89839
 Alpha  occ. eigenvalues --   -5.89831  -5.89727  -5.89525  -5.89524  -5.89521
 Alpha  occ. eigenvalues --   -5.89490  -5.89472  -5.89386  -5.89360  -5.89018
 Alpha  occ. eigenvalues --   -1.06925  -1.06905  -1.06889  -1.06854  -1.06742
 Alpha  occ. eigenvalues --   -1.06681  -1.06393  -0.98192  -0.98069  -0.97917
 Alpha  occ. eigenvalues --   -0.97763  -0.97629  -0.97508  -0.96259  -0.92922
 Alpha  occ. eigenvalues --   -0.92712  -0.92470  -0.92260  -0.92102  -0.91929
 Alpha  occ. eigenvalues --   -0.90818  -0.89426  -0.89210  -0.88990  -0.88734
 Alpha  occ. eigenvalues --   -0.88317  -0.87808  -0.87330  -0.86194  -0.86123
 Alpha  occ. eigenvalues --   -0.86067  -0.85998  -0.85969  -0.85815  -0.85074
 Alpha  occ. eigenvalues --   -0.84924  -0.84404  -0.83613  -0.82764  -0.81846
 Alpha  occ. eigenvalues --   -0.81079  -0.80546  -0.76226  -0.75659  -0.74794
 Alpha  occ. eigenvalues --   -0.74271  -0.74006  -0.73826  -0.72942  -0.72864
 Alpha  occ. eigenvalues --   -0.72397  -0.72354  -0.71883  -0.71726  -0.71203
 Alpha  occ. eigenvalues --   -0.70812  -0.68886  -0.68213  -0.67846  -0.67435
 Alpha  occ. eigenvalues --   -0.67269  -0.67055  -0.66813  -0.66478  -0.66397
 Alpha  occ. eigenvalues --   -0.66196  -0.66041  -0.65886  -0.65800  -0.65306
 Alpha  occ. eigenvalues --   -0.63492  -0.63282  -0.62894  -0.62537  -0.61888
 Alpha  occ. eigenvalues --   -0.61239  -0.60702  -0.59718  -0.58669  -0.57905
 Alpha  occ. eigenvalues --   -0.57788  -0.57678  -0.57476  -0.57438  -0.56864
 Alpha  occ. eigenvalues --   -0.56532  -0.56337  -0.56171  -0.56055  -0.55886
 Alpha  occ. eigenvalues --   -0.55828  -0.55279  -0.55064  -0.55018  -0.54594
 Alpha  occ. eigenvalues --   -0.54418  -0.54162  -0.54034  -0.53905  -0.53744
 Alpha  occ. eigenvalues --   -0.53711  -0.53643  -0.53547  -0.53474  -0.53295
 Alpha  occ. eigenvalues --   -0.52718  -0.52614  -0.52581  -0.52475  -0.52393
 Alpha  occ. eigenvalues --   -0.52305  -0.51731  -0.51422  -0.51336  -0.51289
 Alpha  occ. eigenvalues --   -0.51206  -0.51104  -0.50934  -0.50714  -0.50395
 Alpha  occ. eigenvalues --   -0.50099  -0.49742  -0.49594  -0.49180  -0.48779
 Alpha  occ. eigenvalues --   -0.48430  -0.47977  -0.47756  -0.47618  -0.47144
 Alpha  occ. eigenvalues --   -0.46898  -0.46657  -0.46596  -0.46337  -0.46054
 Alpha  occ. eigenvalues --   -0.45931  -0.45731  -0.45621  -0.45281  -0.45160
 Alpha  occ. eigenvalues --   -0.44395  -0.44156  -0.44057  -0.43894  -0.43864
 Alpha  occ. eigenvalues --   -0.43680  -0.43543  -0.43266  -0.42499  -0.41990
 Alpha  occ. eigenvalues --   -0.41300  -0.40420  -0.39542  -0.38854  -0.38359
 Alpha  occ. eigenvalues --   -0.37751  -0.37684  -0.37606  -0.37472  -0.37374
 Alpha  occ. eigenvalues --   -0.37237  -0.37103  -0.37057  -0.37019  -0.36984
 Alpha  occ. eigenvalues --   -0.36925  -0.36791  -0.36558  -0.36144  -0.36036
 Alpha  occ. eigenvalues --   -0.36017  -0.35998  -0.35978  -0.35918  -0.35740
 Alpha  occ. eigenvalues --   -0.35001  -0.34322  -0.33218  -0.31999  -0.30797
 Alpha  occ. eigenvalues --   -0.29719  -0.28861  -0.28335
 Alpha virt. eigenvalues --   -0.02590  -0.01970  -0.01099  -0.00046   0.01077
 Alpha virt. eigenvalues --    0.02210   0.03104   0.04825   0.04920   0.04988
 Alpha virt. eigenvalues --    0.05051   0.05102   0.05255   0.05862   0.06150

  Beta  occ. eigenvalues --  -88.27941 -88.27939 -88.27936 -88.27888 -88.27886
  Beta  occ. eigenvalues --  -88.27777 -88.27434 -14.17090 -14.17088 -14.17073
  Beta  occ. eigenvalues --  -14.17032 -14.16928 -14.16915 -14.16558 -10.14095
  Beta  occ. eigenvalues --  -10.14094 -10.14089 -10.14043 -10.13963 -10.13935
  Beta  occ. eigenvalues --  -10.13586 -10.11329 -10.11325 -10.11312 -10.11277
  Beta  occ. eigenvalues --  -10.11171 -10.10854 -10.10433 -10.10208 -10.10201
  Beta  occ. eigenvalues --  -10.10183 -10.10163 -10.10144 -10.10138 -10.10129
  Beta  occ. eigenvalues --  -10.10109 -10.10105 -10.10064 -10.10035 -10.09845
  Beta  occ. eigenvalues --  -10.09775 -10.09651 -10.09639 -10.09627 -10.09607
  Beta  occ. eigenvalues --  -10.09558 -10.09391 -10.08814 -10.08747 -10.08746
  Beta  occ. eigenvalues --  -10.08727 -10.08706 -10.08656 -10.08552 -10.08533
  Beta  occ. eigenvalues --  -10.08506 -10.08506 -10.08498 -10.08429 -10.08372
  Beta  occ. eigenvalues --  -10.08342 -10.08340 -10.08324 -10.08267 -10.08244
  Beta  occ. eigenvalues --  -10.08077 -10.08055 -10.08033 -10.08031 -10.08004
  Beta  occ. eigenvalues --  -10.07967 -10.07809 -10.07806 -10.07473 -10.07428
  Beta  occ. eigenvalues --  -10.07271 -10.07108  -7.88555  -7.88554  -7.88551
  Beta  occ. eigenvalues --   -7.88504  -7.88502  -7.88391  -7.88049  -5.90363
  Beta  occ. eigenvalues --   -5.90362  -5.90359  -5.90310  -5.90305  -5.90199
  Beta  occ. eigenvalues --   -5.89891  -5.89890  -5.89888  -5.89858  -5.89839
  Beta  occ. eigenvalues --   -5.89831  -5.89727  -5.89525  -5.89524  -5.89521
  Beta  occ. eigenvalues --   -5.89490  -5.89472  -5.89386  -5.89360  -5.89018
  Beta  occ. eigenvalues --   -1.06925  -1.06905  -1.06889  -1.06854  -1.06742
  Beta  occ. eigenvalues --   -1.06681  -1.06393  -0.98192  -0.98069  -0.97917
  Beta  occ. eigenvalues --   -0.97763  -0.97629  -0.97508  -0.96259  -0.92922
  Beta  occ. eigenvalues --   -0.92712  -0.92470  -0.92260  -0.92102  -0.91929
  Beta  occ. eigenvalues --   -0.90818  -0.89426  -0.89210  -0.88990  -0.88734
  Beta  occ. eigenvalues --   -0.88317  -0.87808  -0.87330  -0.86194  -0.86123
  Beta  occ. eigenvalues --   -0.86067  -0.85998  -0.85969  -0.85815  -0.85074
  Beta  occ. eigenvalues --   -0.84924  -0.84404  -0.83613  -0.82764  -0.81846
  Beta  occ. eigenvalues --   -0.81079  -0.80546  -0.76226  -0.75659  -0.74794
  Beta  occ. eigenvalues --   -0.74271  -0.74006  -0.73826  -0.72942  -0.72864
  Beta  occ. eigenvalues --   -0.72397  -0.72354  -0.71883  -0.71726  -0.71203
  Beta  occ. eigenvalues --   -0.70812  -0.68886  -0.68213  -0.67846  -0.67435
  Beta  occ. eigenvalues --   -0.67269  -0.67055  -0.66813  -0.66478  -0.66397
  Beta  occ. eigenvalues --   -0.66196  -0.66041  -0.65886  -0.65800  -0.65306
  Beta  occ. eigenvalues --   -0.63492  -0.63282  -0.62894  -0.62537  -0.61888
  Beta  occ. eigenvalues --   -0.61239  -0.60702  -0.59718  -0.58669  -0.57905
  Beta  occ. eigenvalues --   -0.57788  -0.57678  -0.57476  -0.57438  -0.56864
  Beta  occ. eigenvalues --   -0.56532  -0.56337  -0.56171  -0.56055  -0.55886
  Beta  occ. eigenvalues --   -0.55828  -0.55279  -0.55064  -0.55018  -0.54594
  Beta  occ. eigenvalues --   -0.54418  -0.54162  -0.54034  -0.53905  -0.53744
  Beta  occ. eigenvalues --   -0.53711  -0.53643  -0.53547  -0.53474  -0.53295
  Beta  occ. eigenvalues --   -0.52718  -0.52614  -0.52581  -0.52475  -0.52393
  Beta  occ. eigenvalues --   -0.52305  -0.51731  -0.51422  -0.51336  -0.51289
  Beta  occ. eigenvalues --   -0.51206  -0.51104  -0.50934  -0.50714  -0.50395
  Beta  occ. eigenvalues --   -0.50099  -0.49742  -0.49594  -0.49180  -0.48779
  Beta  occ. eigenvalues --   -0.48430  -0.47977  -0.47756  -0.47618  -0.47144
  Beta  occ. eigenvalues --   -0.46898  -0.46657  -0.46596  -0.46337  -0.46054
  Beta  occ. eigenvalues --   -0.45931  -0.45731  -0.45621  -0.45281  -0.45160
  Beta  occ. eigenvalues --   -0.44395  -0.44156  -0.44057  -0.43894  -0.43864
  Beta  occ. eigenvalues --   -0.43680  -0.43543  -0.43266  -0.42499  -0.41990
  Beta  occ. eigenvalues --   -0.41300  -0.40420  -0.39542  -0.38854  -0.38359
  Beta  occ. eigenvalues --   -0.37751  -0.37684  -0.37606  -0.37472  -0.37374
  Beta  occ. eigenvalues --   -0.37237  -0.37103  -0.37057  -0.37019  -0.36984
  Beta  occ. eigenvalues --   -0.36925  -0.36791  -0.36558  -0.36144  -0.36036
  Beta  occ. eigenvalues --   -0.36017  -0.35998  -0.35978  -0.35918  -0.35740
  Beta  occ. eigenvalues --   -0.35001  -0.34322  -0.33218  -0.31999  -0.30797
  Beta  occ. eigenvalues --   -0.29719  -0.28861  -0.28335
  Beta virt. eigenvalues --   -0.02590  -0.01970  -0.01099  -0.00046   0.01077
  Beta virt. eigenvalues --    0.02210   0.03104   0.04825   0.04920   0.04988
  Beta virt. eigenvalues --    0.05051   0.05102   0.05255   0.05862   0.06150

 Mulliken charges and spin densities:
               1          2
     1  C    0.017200   0.000000
     2  C    0.027449  -0.000000
     3  C    0.037509   0.000000
     4  C   -0.010530  -0.000000
     5  C   -0.023461  -0.000000
     6  C    0.022678  -0.000000
     7  C    0.010731   0.000000
     8  N   -0.180292  -0.000000
     9  C    0.125791   0.000000
    10  C   -0.207514   0.000000
    11  S    0.143527  -0.000000
    12  C    0.050487  -0.000000
    13  C    0.005831   0.000000
    14  C   -0.008792  -0.000000
    15  C    0.000584   0.000000
    16  C    0.049788  -0.000000
    17  C    0.012578   0.000000
    18  C    0.006334  -0.000000
    19  N   -0.180856  -0.000000
    20  C    0.126487  -0.000000
    21  C   -0.206962   0.000000
    22  S    0.146215   0.000000
    23  C    0.049846   0.000000
    24  C    0.012653  -0.000000
    25  C    0.050008   0.000000
    26  C    0.000814  -0.000000
    27  C   -0.008530   0.000000
    28  C    0.005994  -0.000000
    29  C    0.006111  -0.000000
    30  N   -0.180787   0.000000
    31  C    0.126594   0.000000
    32  C   -0.206845   0.000000
    33  S    0.146852   0.000000
    34  C    0.049578  -0.000000
    35  C    0.006160   0.000000
    36  C   -0.008489   0.000000
    37  C    0.000989   0.000000
    38  C    0.050068  -0.000000
    39  C    0.012759   0.000000
    40  C    0.006387  -0.000000
    41  N   -0.180553   0.000000
    42  C    0.127159  -0.000000
    43  C   -0.206401   0.000000
    44  S    0.144489   0.000000
    45  C    0.049823  -0.000000
    46  C    0.011080   0.000000
    47  C    0.051174  -0.000000
    48  C    0.000744   0.000000
    49  C   -0.009554  -0.000000
    50  C    0.007476   0.000000
    51  C    0.006242  -0.000000
    52  N   -0.180767   0.000000
    53  C    0.126629  -0.000000
    54  C   -0.206587   0.000000
    55  S    0.146488   0.000000
    56  C    0.049311  -0.000000
    57  C    0.012766   0.000000
    58  C    0.050163  -0.000000
    59  C    0.000701  -0.000000
    60  C   -0.008523   0.000000
    61  C    0.006235  -0.000000
    62  C    0.005968   0.000000
    63  N   -0.180871  -0.000000
    64  C    0.126605  -0.000000
    65  C   -0.206127   0.000000
    66  S    0.146766  -0.000000
    67  C    0.048482  -0.000000
    68  C    0.011994  -0.000000
    69  C    0.049337   0.000000
    70  C    0.007190   0.000000
    71  C   -0.006554  -0.000000
    72  C    0.005226   0.000000
    73  C   -0.010951  -0.000000
    74  N   -0.184998  -0.000000
    75  C    0.121153  -0.000000
    76  C   -0.171768   0.000000
    77  S    0.148264  -0.000000
    78  H   -0.004563  -0.000000
    79  H   -0.002029  -0.000000
    80  H   -0.004782   0.000000
    81  H   -0.004203  -0.000000
    82  H   -0.004083   0.000000
    83  H    0.010407   0.000000
    84  H   -0.009415   0.000000
    85  H   -0.001988   0.000000
    86  H   -0.002334  -0.000000
    87  H   -0.002937  -0.000000
    88  H    0.011392  -0.000000
    89  H   -0.002812  -0.000000
    90  H   -0.001872   0.000000
    91  H   -0.001506   0.000000
    92  H   -0.009099  -0.000000
    93  H    0.011619   0.000000
    94  H   -0.009230   0.000000
    95  H   -0.001791   0.000000
    96  H   -0.001505  -0.000000
    97  H   -0.002737   0.000000
    98  H    0.012755  -0.000000
    99  H   -0.007090   0.000000
   100  H   -0.001546   0.000000
   101  H   -0.001365  -0.000000
   102  H   -0.004836   0.000000
   103  H    0.011697   0.000000
   104  H   -0.002886   0.000000
   105  H   -0.001781  -0.000000
   106  H   -0.001219  -0.000000
   107  H   -0.009088  -0.000000
   108  H    0.011539   0.000000
   109  H   -0.002960   0.000000
   110  H   -0.001186   0.000000
   111  H   -0.001881  -0.000000
   112  H   -0.009496  -0.000000
   113  H    0.012184   0.000000
   114  H    0.037875  -0.000000
 Sum of Mulliken charges =  -0.00000  -0.00000

 Dipole moment (field-independent basis, Debye):
    X=              4.5631    Y=              1.9768    Z=             -0.9127  Tot=              5.0560
 Quadrupole moment (field-independent basis, Debye-Ang):
   XX=           -371.3817   YY=           -473.9661   ZZ=           -486.4746
   XY=             18.5438   XZ=             -0.0650   YZ=              3.5342

 Normal termination of Gaussian 16 at Fri Jul 24 09:01:03 2020.
