 Gaussian 16, Revision A.03,
 Gaussian 16:  EM64L-G16RevA.03 25-Dec-2016

 ---------------------------------------------------------------
 #P uLC-wPBE/cc-pVDZ iop(3/107=0380600000, 3/108=0380600000) opt
 ---------------------------------------------------------------

 --------------
 H79 C91 N7 O14
 --------------
 Symbolic Z-matrix:
 Charge =  0 Multiplicity = 1

 SCF Done:  E(ULC-wPBE) =  -4947.87926302     A.U. after   16 cycles
 SCF Done:  E(ULC-wPBE) =  -4948.00947831     A.U. after   13 cycles
 SCF Done:  E(ULC-wPBE) =  -4948.17450105     A.U. after   14 cycles
 SCF Done:  E(ULC-wPBE) =  -4948.25377616     A.U. after   14 cycles
 SCF Done:  E(ULC-wPBE) =  -4948.26659574     A.U. after   15 cycles
 SCF Done:  E(ULC-wPBE) =  -4948.27174728     A.U. after   15 cycles
 SCF Done:  E(ULC-wPBE) =  -4948.27709996     A.U. after   13 cycles
 SCF Done:  E(ULC-wPBE) =  -4948.28186243     A.U. after   16 cycles
 SCF Done:  E(ULC-wPBE) =  -4948.28509676     A.U. after   13 cycles
 SCF Done:  E(ULC-wPBE) =  -4948.28752101     A.U. after   14 cycles
 SCF Done:  E(ULC-wPBE) =  -4948.29103662     A.U. after   12 cycles
 SCF Done:  E(ULC-wPBE) =  -4948.29104097     A.U. after   11 cycles
 SCF Done:  E(ULC-wPBE) =  -4948.29104257     A.U. after   10 cycles
 SCF Done:  E(ULC-wPBE) =  -4948.29104321     A.U. after   10 cycles
 SCF Done:  E(ULC-wPBE) =  -4948.29104338     A.U. after    7 cycles
 SCF Done:  E(ULC-wPBE) =  -4948.29104349     A.U. after    6 cycles
 SCF Done:  E(ULC-wPBE) =  -4948.29104344     A.U. after    5 cycles
 SCF Done:  E(ULC-wPBE) =  -4948.29104348     A.U. after    5 cycles
 SCF Done:  E(ULC-wPBE) =  -4948.29104348     A.U. after    7 cycles
 SCF Done:  E(ULC-wPBE) =  -4948.29104343     A.U. after    5 cycles
 Optimization completed on the basis of negligible forces.
    -- Stationary point found.

                         Standard orientation:
 ---------------------------------------------------------------------
 Center     Atomic      Atomic             Coordinates (Angstroms)
 Number     Number       Type             X           Y           Z
 ---------------------------------------------------------------------
      1          6           0       28.913646   -1.424061    0.766455
      2          6           0       28.462312   -0.147441    0.442440
      3          6           0       27.096380    0.061239    0.311323
      4          8           0       26.526124    1.229269   -0.058529
      5          6           0       27.366781    2.343274   -0.237196
      6          6           0       26.224359   -1.022820    0.544225
      7          7           0       26.671649   -2.240276    0.822279
      8          6           0       27.987546   -2.436952    0.931335
      9          6           0       24.749180   -0.863631    0.419322
     10          6           0       24.044595   -1.681398   -0.452441
     11          6           0       22.666106   -1.576621   -0.596949
     12          6           0       21.960477   -0.641806    0.155246
     13          6           0       22.653336    0.167929    1.060782
     14          6           0       24.033299    0.055055    1.203753
     15          8           0       24.758780    0.774186    2.093289
     16          6           0       24.085577    1.709970    2.900012
     17          6           0       20.488884   -0.506591    0.017679
     18          6           0       19.874572   -0.535958   -1.237373
     19          6           0       18.496677   -0.406835   -1.325548
     20          8           0       17.790236   -0.472727   -2.475540
     21          6           0       18.503175   -0.636213   -3.678077
     22          6           0       17.759351   -0.215824   -0.139536
     23          7           0       18.342226   -0.224241    1.051728
     24          6           0       19.664995   -0.366458    1.128168
     25          6           0       16.278386   -0.068315   -0.163793
     26          6           0       15.491954   -0.940225    0.575094
     27          6           0       14.105118   -0.840149    0.587202
     28          6           0       13.479269    0.164737   -0.143701
     29          6           0       14.260313    1.070529   -0.869268
     30          6           0       15.647877    0.964822   -0.876124
     31          8           0       16.466506    1.831406   -1.520191
     32          6           0       15.882253    2.853375   -2.289142
     33          6           0       12.000187    0.286259   -0.151474
     34          6           0       11.369210    1.522871   -0.002063
     35          6           0        9.983187    1.587378   -0.010247
     36          8           0        9.268576    2.729276    0.132657
     37          6           0        9.977450    3.940823    0.249104
     38          6           0        9.249515    0.395632   -0.171838
     39          7           0        9.856335   -0.775624   -0.322321
     40          6           0       11.186323   -0.829723   -0.311145
     41          6           0        7.760673    0.400314   -0.170808
     42          6           0        7.038931    0.940815    0.893757
     43          6           0        5.653981    0.898174    0.923288
     44          6           0        4.941318    0.324846   -0.132852
     45          6           0        5.655441   -0.198639   -1.208340
     46          6           0        7.046660   -0.165302   -1.231409
     47          8           0        7.713177   -0.624236   -2.333501
     48          6           0        7.775059   -2.036818   -2.435260
     49          6           0        3.458177    0.282439   -0.117590
     50          6           0        2.707109    1.381884    0.307090
     51          6           0        1.322088    1.301967    0.307671
     52          8           0        0.491606    2.313960    0.630456
     53          6           0        1.055595    3.489807    1.160762
     54          6           0        0.717764    0.093762   -0.094398
     55          7           0        1.432764   -0.941646   -0.515555
     56          6           0        2.762451   -0.849326   -0.527240
     57          6           0       -0.763360   -0.051319   -0.102182
     58          6           0       -1.428011   -0.385381   -1.279309
     59          6           0       -2.808592   -0.519366   -1.311946
     60          6           0       -3.567161   -0.327579   -0.155115
     61          6           0       -2.902486   -0.019836    1.032298
     62          6           0       -1.520420    0.112118    1.060701
     63          8           0       -0.905942    0.392654    2.255925
     64          6           0       -0.438246   -0.766036    2.922851
     65          6           0       -5.045116   -0.455611   -0.180176
     66          6           0       -5.671597   -1.479956   -0.893498
     67          6           0       -7.056687   -1.561291   -0.891142
     68          8           0       -7.771875   -2.513649   -1.536813
     69          6           0       -7.062133   -3.498504   -2.250944
     70          6           0       -7.790126   -0.603411   -0.164372
     71          7           0       -7.190557    0.369703    0.509124
     72          6           0       -5.861757    0.442004    0.499573
     73          6           0       -9.279727   -0.641094   -0.139328
     74          6           0      -10.017252   -0.498113   -1.305923
     75          6           0      -11.407565   -0.474988   -1.293865
     76          6           0      -12.090248   -0.607647   -0.088944
     77          6           0      -11.361549   -0.768799    1.093856
     78          6           0       -9.969648   -0.789792    1.075506
     79          8           0       -9.205244   -0.963412    2.178756
     80          6           0       -9.846785   -1.054084    3.426618
     81          6           0      -13.573814   -0.584113   -0.049778
     82          6           0      -14.294939   -1.501825    0.719502
     83          6           0      -15.680440   -1.445635    0.726799
     84          8           0      -16.481825   -2.320148    1.374821
     85          6           0      -15.871754   -3.313429    2.162669
     86          6           0      -16.319443   -0.438352   -0.024170
     87          7           0      -15.632187    0.413148   -0.773739
     88          6           0      -14.301257    0.343674   -0.785310
     89          6           0      -17.803002   -0.329691   -0.069301
     90          6           0      -18.453829   -0.360055   -1.294313
     91          6           0      -19.836622   -0.252838   -1.388423
     92          6           0      -20.598813   -0.098216   -0.234248
     93          6           0      -19.954326   -0.035732    1.005554
     94          6           0      -18.569203   -0.140252    1.092361
     95          8           0      -17.877653   -0.027454    2.251694
     96          6           0      -18.602527    0.133086    3.446519
     97          6           0      -22.077461    0.008683   -0.305181
     98          6           0      -22.700988    0.780757   -1.289245
     99          6           0      -24.086035    0.851762   -1.324297
    100          8           0      -24.800236    1.519198   -2.253110
    101          6           0      -24.101238    2.323962   -3.172741
    102          6           0      -24.820649    0.165454   -0.336108
    103          7           0      -24.226961   -0.588264    0.580277
    104          6           0      -22.896223   -0.666801    0.592503
    105          6           0      -26.308098    0.228663   -0.309488
    106          6           0      -27.056964   -0.942961   -0.395584
    107          6           0      -28.445552   -0.907337   -0.378516
    108          6           0      -29.103304    0.312614   -0.267535
    109          6           0      -28.370147    1.487077   -0.153387
    110          6           0      -26.980835    1.445518   -0.169702
    111          8           0      -26.274757    2.617087   -0.040361
    112          6           0      -25.890774    2.885230    1.295334
    113          1           0       29.981261   -1.622856    0.876151
    114          1           0       29.176591    0.660817    0.284220
    115          1           0       27.911662    2.593653    0.688670
    116          1           0       26.712687    3.181261   -0.505622
    117          1           0       28.092902    2.181806   -1.052050
    118          1           0       28.304970   -3.457497    1.165451
    119          1           0       24.602974   -2.425310   -1.023939
    120          1           0       22.136647   -2.244394   -1.279125
    121          1           0       22.095015    0.899292    1.644399
    122          1           0       23.603552    2.497302    2.296405
    123          1           0       23.325691    1.228127    3.537795
    124          1           0       24.849324    2.167084    3.540548
    125          1           0       20.489261   -0.652013   -2.130319
    126          1           0       17.753359   -0.661614   -4.477532
    127          1           0       19.071772   -1.581410   -3.690653
    128          1           0       19.194614    0.204026   -3.858462
    129          1           0       20.089593   -0.387489    2.136563
    130          1           0       15.992517   -1.714178    1.160000
    131          1           0       13.510894   -1.533217    1.185222
    132          1           0       13.763185    1.851438   -1.444659
    133          1           0       15.251549    2.446159   -3.097229
    134          1           0       16.712521    3.416484   -2.732059
    135          1           0       15.277998    3.537787   -1.669720
    136          1           0       11.974392    2.418617    0.140198
    137          1           0        9.221211    4.730717    0.326511
    138          1           0       10.605340    4.130293   -0.637627
    139          1           0       10.610570    3.958878    1.152166
    140          1           0       11.632299   -1.818376   -0.455294
    141          1           0        7.583176    1.390157    1.726027
    142          1           0        5.118435    1.297785    1.787097
    143          1           0        5.133078   -0.607890   -2.075544
    144          1           0        8.281562   -2.261254   -3.382670
    145          1           0        6.767378   -2.486119   -2.453016
    146          1           0        8.356251   -2.452839   -1.598213
    147          1           0        3.218095    2.300177    0.597848
    148          1           0        0.213779    4.144882    1.412900
    149          1           0        1.636424    3.281640    2.074696
    150          1           0        1.701333    4.000957    0.426828
    151          1           0        3.304496   -1.739568   -0.860250
    152          1           0       -0.839007   -0.532203   -2.186700
    153          1           0       -3.307181   -0.747984   -2.256331
    154          1           0       -3.451225    0.104235    1.967882
    155          1           0        0.064549   -0.427088    3.837707
    156          1           0        0.278471   -1.327989    2.300521
    157          1           0       -1.273261   -1.434439    3.195284
    158          1           0       -5.063676   -2.215959   -1.420343
    159          1           0       -6.403818   -4.086095   -1.589236
    160          1           0       -6.458742   -3.058734   -3.063008
    161          1           0       -7.817091   -4.163485   -2.686537
    162          1           0       -5.420031    1.277221    1.052018
    163          1           0       -9.483601   -0.400532   -2.253267
    164          1           0      -11.961494   -0.373451   -2.228617
    165          1           0      -11.901799   -0.854400    2.036602
    166          1           0      -10.509477   -1.934589    3.484621
    167          1           0       -9.049786   -1.158623    4.172420
    168          1           0      -10.431579   -0.146396    3.651232
    169          1           0      -13.758728   -2.272638    1.273883
    170          1           0      -16.687377   -3.894086    2.609534
    171          1           0      -15.243015   -3.987719    1.556850
    172          1           0      -15.258909   -2.874128    2.967911
    173          1           0      -13.784371    1.085497   -1.401530
    174          1           0      -17.848620   -0.478309   -2.195116
    175          1           0      -20.323618   -0.316829   -2.363265
    176          1           0      -20.553135    0.132643    1.900175
    177          1           0      -17.859232    0.180412    4.251437
    178          1           0      -19.189100    1.067160    3.447344
    179          1           0      -19.279321   -0.718233    3.630408
    180          1           0      -22.089945    1.323242   -2.011161
    181          1           0      -24.863152    2.812854   -3.790673
    182          1           0      -23.503101    3.095702   -2.660474
    183          1           0      -23.441867    1.724335   -3.822914
    184          1           0      -22.458550   -1.317975    1.355425
    185          1           0      -26.526783   -1.893908   -0.478106
    186          1           0      -29.015871   -1.835103   -0.456978
    187          1           0      -30.194932    0.350684   -0.260320
    188          1           0      -28.859127    2.457844   -0.051374
    189          1           0      -26.772194    3.020918    1.945977
    190          1           0      -25.307957    3.815311    1.280399
    191          1           0      -25.268357    2.072539    1.706833
 ---------------------------------------------------------------------

 Alpha virt. eigenvalues --    0.79468   0.79563   0.79581   0.79653   0.79755
 Alpha virt. eigenvalues --    0.79812   0.80011   0.80235   0.80280   0.80325
 Alpha virt. eigenvalues --    0.80516   0.80656   0.80981   0.81121   0.81174

  Beta  occ. eigenvalues --  -19.01206 -19.00778 -19.00667 -19.00549 -19.00459
  Beta  occ. eigenvalues --  -19.00385 -19.00300 -19.00137 -19.00076 -18.99838
  Beta  occ. eigenvalues --  -18.99559 -18.97888 -18.97531 -18.97460 -14.20365
  Beta  occ. eigenvalues --  -14.20206 -14.19956 -14.19951 -14.19836 -14.19577
  Beta  occ. eigenvalues --  -14.19414 -10.17998 -10.17671 -10.17660 -10.17566
  Beta  occ. eigenvalues --  -10.17312 -10.17309 -10.17270 -10.17253 -10.17236
  Beta  occ. eigenvalues --  -10.17182 -10.17003 -10.16875 -10.16812 -10.16786
  Beta  occ. eigenvalues --  -10.16651 -10.16610 -10.16607 -10.16477 -10.16376
  Beta  occ. eigenvalues --  -10.16158 -10.16121 -10.16099 -10.15997 -10.15913
  Beta  occ. eigenvalues --  -10.15416 -10.14961 -10.14956 -10.14745 -10.14681
  Beta  occ. eigenvalues --  -10.14652 -10.14578 -10.14284 -10.14229 -10.14229
  Beta  occ. eigenvalues --  -10.14167 -10.13413 -10.13229 -10.13226 -10.13077
  Beta  occ. eigenvalues --  -10.12906 -10.12884 -10.12778 -10.12729 -10.12682
  Beta  occ. eigenvalues --  -10.12652 -10.12639 -10.12604 -10.12550 -10.12541
  Beta  occ. eigenvalues --  -10.12520 -10.12395 -10.12337 -10.12324 -10.12317
  Beta  occ. eigenvalues --  -10.12254 -10.12233 -10.12205 -10.12141 -10.12016
  Beta  occ. eigenvalues --  -10.11926 -10.11920 -10.11917 -10.11576 -10.11419
  Beta  occ. eigenvalues --  -10.11364 -10.11317 -10.11233 -10.11109 -10.11097
  Beta  occ. eigenvalues --  -10.11093 -10.11054 -10.10943 -10.10918 -10.10915
  Beta  occ. eigenvalues --  -10.10913 -10.10842 -10.10819 -10.10798 -10.10781
  Beta  occ. eigenvalues --  -10.10778 -10.10697 -10.10623 -10.10541 -10.10505
  Beta  occ. eigenvalues --  -10.10470 -10.10406 -10.10386 -10.10153 -10.10121
  Beta  occ. eigenvalues --  -10.10095 -10.09971  -1.20929  -1.20743  -1.20661
  Beta  occ. eigenvalues --   -1.20422  -1.20351  -1.20273  -1.20035  -1.19865
  Beta  occ. eigenvalues --   -1.19735  -1.19429  -1.19381  -1.17639  -1.17382
  Beta  occ. eigenvalues --   -1.17190  -1.08320  -1.08172  -1.08031  -1.07975
  Beta  occ. eigenvalues --   -1.07797  -1.07658  -1.07587  -1.00915  -1.00680
  Beta  occ. eigenvalues --   -1.00497  -1.00365  -1.00219  -0.99927  -0.98995
  Beta  occ. eigenvalues --   -0.96225  -0.95790  -0.95471  -0.95085  -0.94785
  Beta  occ. eigenvalues --   -0.94353  -0.93946  -0.92961  -0.92623  -0.92455
  Beta  occ. eigenvalues --   -0.92356  -0.92081  -0.91645  -0.91219  -0.89939
  Beta  occ. eigenvalues --   -0.89412  -0.88998  -0.88831  -0.88613  -0.88501
  Beta  occ. eigenvalues --   -0.88431  -0.88402  -0.88241  -0.87803  -0.87495
  Beta  occ. eigenvalues --   -0.86873  -0.86397  -0.85986  -0.84820  -0.84519
  Beta  occ. eigenvalues --   -0.84285  -0.84212  -0.84130  -0.83679  -0.83568
  Beta  occ. eigenvalues --   -0.83243  -0.83136  -0.82673  -0.82090  -0.81534
  Beta  occ. eigenvalues --   -0.81329  -0.81036  -0.79862  -0.79127  -0.78131
  Beta  occ. eigenvalues --   -0.77259  -0.76489  -0.75828  -0.75548  -0.75301
  Beta  occ. eigenvalues --   -0.74637  -0.74415  -0.74241  -0.74156  -0.74048
  Beta  occ. eigenvalues --   -0.73953  -0.72903  -0.72697  -0.72638  -0.72460
  Beta  occ. eigenvalues --   -0.71990  -0.71915  -0.71579  -0.71264  -0.71206
  Beta  occ. eigenvalues --   -0.70835  -0.70746  -0.70477  -0.70302  -0.70116
  Beta  occ. eigenvalues --   -0.67705  -0.67334  -0.67234  -0.66824  -0.66613
  Beta  occ. eigenvalues --   -0.66386  -0.66045  -0.65043  -0.64917  -0.64555
  Beta  occ. eigenvalues --   -0.64260  -0.64188  -0.63996  -0.63932  -0.63603
  Beta  occ. eigenvalues --   -0.63444  -0.63206  -0.63164  -0.63069  -0.62915
  Beta  occ. eigenvalues --   -0.62628  -0.61904  -0.61597  -0.61578  -0.61183
  Beta  occ. eigenvalues --   -0.61151  -0.61090  -0.61001  -0.60979  -0.60864
  Beta  occ. eigenvalues --   -0.60747  -0.60675  -0.60633  -0.60482  -0.60279
  Beta  occ. eigenvalues --   -0.59958  -0.59775  -0.59630  -0.59602  -0.59562
  Beta  occ. eigenvalues --   -0.59384  -0.59261  -0.59246  -0.59114  -0.59059
  Beta  occ. eigenvalues --   -0.58841  -0.58781  -0.58760  -0.58578  -0.58203
  Beta  occ. eigenvalues --   -0.57679  -0.57504  -0.57397  -0.57117  -0.57060
  Beta  occ. eigenvalues --   -0.56491  -0.56275  -0.56165  -0.55877  -0.55631
  Beta  occ. eigenvalues --   -0.55574  -0.55220  -0.55206  -0.55045  -0.54854
  Beta  occ. eigenvalues --   -0.54798  -0.54779  -0.54677  -0.54660  -0.54493
  Beta  occ. eigenvalues --   -0.54369  -0.54064  -0.53988  -0.53858  -0.53824
  Beta  occ. eigenvalues --   -0.53650  -0.53607  -0.53481  -0.53289  -0.53170
  Beta  occ. eigenvalues --   -0.52998  -0.52923  -0.52784  -0.52694  -0.52624
  Beta  occ. eigenvalues --   -0.52573  -0.52437  -0.52317  -0.52100  -0.51989
  Beta  occ. eigenvalues --   -0.51911  -0.51586  -0.51478  -0.50959  -0.50776
  Beta  occ. eigenvalues --   -0.50630  -0.50301  -0.50217  -0.49970  -0.49754
  Beta  occ. eigenvalues --   -0.49605  -0.49538  -0.49337  -0.49256  -0.48904
  Beta  occ. eigenvalues --   -0.48539  -0.48384  -0.48182  -0.47943  -0.47861
  Beta  occ. eigenvalues --   -0.47763  -0.47651  -0.47124  -0.46991  -0.46898
  Beta  occ. eigenvalues --   -0.46766  -0.46613  -0.46515  -0.46206  -0.45829
  Beta  occ. eigenvalues --   -0.45767  -0.45750  -0.45709  -0.45606  -0.45503
  Beta  occ. eigenvalues --   -0.45424  -0.45328  -0.45288  -0.45170  -0.45009
  Beta  occ. eigenvalues --   -0.44850  -0.44821  -0.44655  -0.44367  -0.44282
  Beta  occ. eigenvalues --   -0.44095  -0.44004  -0.43805  -0.43543  -0.43494
  Beta  occ. eigenvalues --   -0.43489  -0.43439  -0.43299  -0.42999  -0.42747
  Beta  occ. eigenvalues --   -0.40449  -0.39935  -0.39668  -0.39349  -0.38930
  Beta  occ. eigenvalues --   -0.38519  -0.38317  -0.37733  -0.37536  -0.37109
  Beta  occ. eigenvalues --   -0.36458  -0.36336  -0.36231  -0.36123  -0.35978
  Beta  occ. eigenvalues --   -0.35898  -0.35519  -0.35348  -0.35122  -0.35040
  Beta  occ. eigenvalues --   -0.34980  -0.34841  -0.34748  -0.34562  -0.34063
  Beta  occ. eigenvalues --   -0.33753  -0.33515  -0.32761  -0.32723  -0.32605
  Beta  occ. eigenvalues --   -0.32352  -0.32067  -0.31725  -0.31271  -0.30657
  Beta  occ. eigenvalues --   -0.30108  -0.29643  -0.29287
  Beta virt. eigenvalues --    0.02108   0.02736   0.03181   0.03977   0.04844
  Beta virt. eigenvalues --    0.05761   0.06282   0.07159   0.07218   0.07395
  Beta virt. eigenvalues --    0.07532   0.07658   0.07798   0.08034   0.08283

 Mulliken charges and spin densities:
               1          2
     1  C   -0.048436   0.000000
     2  C   -0.010836  -0.000000
     3  C    0.129543   0.000000
     4  O   -0.238013   0.000000
     5  C    0.043534  -0.000000
     6  C    0.009890  -0.000000
     7  N   -0.174390   0.000000
     8  C    0.066013  -0.000000
     9  C   -0.014961   0.000000
    10  C    0.056179   0.000000
    11  C   -0.015029   0.000000
    12  C   -0.004510  -0.000000
    13  C   -0.051236   0.000000
    14  C    0.140875  -0.000000
    15  O   -0.246316   0.000000
    16  C    0.047893   0.000000
    17  C   -0.072733   0.000000
    18  C    0.010430  -0.000000
    19  C    0.137944  -0.000000
    20  O   -0.240151   0.000000
    21  C    0.045318   0.000000
    22  C    0.011350  -0.000000
    23  N   -0.170504   0.000000
    24  C    0.066166  -0.000000
    25  C   -0.016119   0.000000
    26  C    0.055859  -0.000000
    27  C   -0.009259  -0.000000
    28  C   -0.009953   0.000000
    29  C   -0.051335  -0.000000
    30  C    0.138905  -0.000000
    31  O   -0.245051   0.000000
    32  C    0.049235   0.000000
    33  C   -0.076209  -0.000000
    34  C    0.016884   0.000000
    35  C    0.119636   0.000000
    36  O   -0.245728  -0.000000
    37  C    0.045279  -0.000000
    38  C    0.033042  -0.000000
    39  N   -0.175203   0.000000
    40  C    0.081594   0.000000
    41  C   -0.000736   0.000000
    42  C    0.050916   0.000000
    43  C   -0.008738   0.000000
    44  C    0.005931   0.000000
    45  C    0.031524   0.000000
    46  C    0.034311  -0.000000
    47  O   -0.263806   0.000000
    48  C    0.065316  -0.000000
    49  C   -0.065060  -0.000000
    50  C    0.008395   0.000000
    51  C    0.143601   0.000000
    52  O   -0.233277   0.000000
    53  C    0.046990   0.000000
    54  C   -0.031235   0.000000
    55  N   -0.166960   0.000000
    56  C    0.063937  -0.000000
    57  C    0.037849  -0.000000
    58  C    0.041585   0.000000
    59  C   -0.006054   0.000000
    60  C    0.006623  -0.000000
    61  C    0.037032   0.000000
    62  C    0.028537  -0.000000
    63  O   -0.269147   0.000000
    64  C    0.063760  -0.000000
    65  C   -0.069590  -0.000000
    66  C    0.008348   0.000000
    67  C    0.120286  -0.000000
    68  O   -0.243410   0.000000
    69  C    0.044890   0.000000
    70  C    0.019723  -0.000000
    71  N   -0.156188  -0.000000
    72  C    0.068792   0.000000
    73  C   -0.025392   0.000000
    74  C    0.066544  -0.000000
    75  C   -0.011826  -0.000000
    76  C   -0.006771   0.000000
    77  C   -0.054390   0.000000
    78  C    0.131487  -0.000000
    79  O   -0.235964  -0.000000
    80  C    0.050204   0.000000
    81  C   -0.072599   0.000000
    82  C    0.008358   0.000000
    83  C    0.136604  -0.000000
    84  O   -0.239925  -0.000000
    85  C    0.046141   0.000000
    86  C    0.012752   0.000000
    87  N   -0.171454  -0.000000
    88  C    0.070004  -0.000000
    89  C   -0.014300   0.000000
    90  C    0.055693  -0.000000
    91  C   -0.014335   0.000000
    92  C   -0.002452   0.000000
    93  C   -0.050731  -0.000000
    94  C    0.137805  -0.000000
    95  O   -0.245861   0.000000
    96  C    0.048330  -0.000000
    97  C   -0.071734  -0.000000
    98  C    0.008567   0.000000
    99  C    0.144577  -0.000000
   100  O   -0.233177   0.000000
   101  C    0.047282   0.000000
   102  C   -0.027276  -0.000000
   103  N   -0.166593   0.000000
   104  C    0.060271   0.000000
   105  C    0.034618  -0.000000
   106  C    0.027740   0.000000
   107  C    0.006127  -0.000000
   108  C    0.013593  -0.000000
   109  C    0.028988  -0.000000
   110  C    0.019824   0.000000
   111  O   -0.269376   0.000000
   112  C    0.065001  -0.000000
   113  H    0.007132  -0.000000
   114  H    0.011271   0.000000
   115  H    0.048226  -0.000000
   116  H    0.061103   0.000000
   117  H    0.048074  -0.000000
   118  H    0.012030  -0.000000
   119  H   -0.008038  -0.000000
   120  H   -0.011601  -0.000000
   121  H   -0.001650   0.000000
   122  H    0.048427  -0.000000
   123  H    0.050474  -0.000000
   124  H    0.056680  -0.000000
   125  H    0.005152  -0.000000
   126  H    0.060934   0.000000
   127  H    0.048971  -0.000000
   128  H    0.049392  -0.000000
   129  H    0.007399  -0.000000
   130  H   -0.005357  -0.000000
   131  H   -0.007031  -0.000000
   132  H   -0.006604   0.000000
   133  H    0.049880  -0.000000
   134  H    0.057487  -0.000000
   135  H    0.043783  -0.000000
   136  H    0.004624  -0.000000
   137  H    0.063313   0.000000
   138  H    0.048261   0.000000
   139  H    0.051814   0.000000
   140  H    0.009675  -0.000000
   141  H   -0.008503  -0.000000
   142  H   -0.011334   0.000000
   143  H   -0.000847   0.000000
   144  H    0.047358  -0.000000
   145  H    0.027131  -0.000000
   146  H    0.048317  -0.000000
   147  H    0.006237   0.000000
   148  H    0.065337  -0.000000
   149  H    0.047352  -0.000000
   150  H    0.048971   0.000000
   151  H    0.007580   0.000000
   152  H   -0.004576  -0.000000
   153  H   -0.009251  -0.000000
   154  H   -0.006406  -0.000000
   155  H    0.049203   0.000000
   156  H    0.049826   0.000000
   157  H    0.033899   0.000000
   158  H    0.005587  -0.000000
   159  H    0.051629  -0.000000
   160  H    0.047778  -0.000000
   161  H    0.062822   0.000000
   162  H    0.009754  -0.000000
   163  H   -0.011896   0.000000
   164  H   -0.009769  -0.000000
   165  H   -0.006380   0.000000
   166  H    0.039991  -0.000000
   167  H    0.059612   0.000000
   168  H    0.051382  -0.000000
   169  H    0.002759   0.000000
   170  H    0.060809  -0.000000
   171  H    0.050631  -0.000000
   172  H    0.044947  -0.000000
   173  H    0.009329   0.000000
   174  H   -0.008076   0.000000
   175  H   -0.011598   0.000000
   176  H   -0.003148  -0.000000
   177  H    0.056071   0.000000
   178  H    0.050708  -0.000000
   179  H    0.047152   0.000000
   180  H    0.007882   0.000000
   181  H    0.063914  -0.000000
   182  H    0.050919  -0.000000
   183  H    0.046401  -0.000000
   184  H    0.006209   0.000000
   185  H   -0.005492   0.000000
   186  H   -0.000404   0.000000
   187  H    0.001633  -0.000000
   188  H   -0.002825  -0.000000
   189  H    0.031838   0.000000
   190  H    0.048415   0.000000
   191  H    0.047204   0.000000
 Sum of Mulliken charges =  -0.00000  -0.00000

 Dipole moment (field-independent basis, Debye):
    X=             11.8965    Y=              4.4212    Z=              0.1977  Tot=             12.6930
 Quadrupole moment (field-independent basis, Debye-Ang):
   XX=           -537.8991   YY=           -590.2505   ZZ=           -585.4579
   XY=            133.2822   XZ=            -77.7684   YZ=              7.1630

 Normal termination of Gaussian 16 at Sat Jul 25 09:44:59 2020.
