 Gaussian 16, Revision A.03,
 Gaussian 16:  EM64L-G16RevA.03 25-Dec-2016

 ---------------------------------------------------------------
 #P uLC-wPBE/cc-pVDZ iop(3/107=0306400000, 3/108=0306400000) opt
 ---------------------------------------------------------------

 --------------
 H42 C55 N10 O5
 --------------
 Symbolic Z-matrix:
 Charge =  0 Multiplicity = 1

 SCF Done:  E(ULC-wPBE) =  -3042.34386871     A.U. after   16 cycles
 SCF Done:  E(ULC-wPBE) =  -3042.42975509     A.U. after   13 cycles
 SCF Done:  E(ULC-wPBE) =  -3042.50936123     A.U. after   15 cycles
 SCF Done:  E(ULC-wPBE) =  -3042.52977120     A.U. after   14 cycles
 SCF Done:  E(ULC-wPBE) =  -3042.53519499     A.U. after   15 cycles
 SCF Done:  E(ULC-wPBE) =  -3042.53663339     A.U. after   15 cycles
 SCF Done:  E(ULC-wPBE) =  -3042.53800994     A.U. after   16 cycles
 SCF Done:  E(ULC-wPBE) =  -3042.53852615     A.U. after   13 cycles
 SCF Done:  E(ULC-wPBE) =  -3042.53883083     A.U. after   13 cycles
 SCF Done:  E(ULC-wPBE) =  -3042.53912104     A.U. after   12 cycles
 SCF Done:  E(ULC-wPBE) =  -3042.54142243     A.U. after   12 cycles
 SCF Done:  E(ULC-wPBE) =  -3042.54153841     A.U. after   13 cycles
 SCF Done:  E(ULC-wPBE) =  -3042.54153980     A.U. after   11 cycles
 SCF Done:  E(ULC-wPBE) =  -3042.54153307     A.U. after   11 cycles
 SCF Done:  E(ULC-wPBE) =  -3042.54154731     A.U. after   12 cycles
 SCF Done:  E(ULC-wPBE) =  -3042.54154760     A.U. after    9 cycles
 SCF Done:  E(ULC-wPBE) =  -3042.54154739     A.U. after   10 cycles
 SCF Done:  E(ULC-wPBE) =  -3042.54154775     A.U. after    7 cycles
 SCF Done:  E(ULC-wPBE) =  -3042.54154781     A.U. after    6 cycles
 SCF Done:  E(ULC-wPBE) =  -3042.54154774     A.U. after    6 cycles
 Optimization completed.
    -- Stationary point found.

                         Standard orientation:
 ---------------------------------------------------------------------
 Center     Atomic      Atomic             Coordinates (Angstroms)
 Number     Number       Type             X           Y           Z
 ---------------------------------------------------------------------
      1          6           0       20.627220   -0.043938   -0.215047
      2          6           0       19.904363   -1.206269   -0.473919
      3          6           0       18.516879   -1.151740   -0.439367
      4          6           0       17.896453    0.070573   -0.155615
      5          7           0       18.584520    1.189713    0.104492
      6          6           0       19.917477    1.118894    0.072795
      7          6           0       16.403618    0.132452   -0.104211
      8          7           0       15.794485   -0.996565    0.285151
      9          6           0       14.468523   -1.026399    0.371535
     10          6           0       13.639736    0.061758    0.069368
     11          6           0       14.273813    1.221682   -0.376162
     12          6           0       15.662995    1.269577   -0.476117
     13          8           0       16.254532    2.380694   -1.007793
     14          6           0       16.433276    3.454520   -0.090598
     15          6           0       12.165391   -0.033489    0.192010
     16          6           0       11.551848   -0.672922    1.272898
     17          6           0       10.165597   -0.728675    1.336646
     18          6           0        9.415298   -0.146783    0.309523
     19          7           0        9.987017    0.463563   -0.736612
     20          6           0       11.315862    0.512450   -0.779675
     21          6           0        7.918983   -0.212478    0.282052
     22          7           0        7.368382   -0.497990   -0.896625
     23          6           0        6.041361   -0.564604   -0.995896
     24          6           0        5.171617   -0.349678    0.075488
     25          6           0        5.743928   -0.038181    1.313983
     26          6           0        7.130145    0.034676    1.428146
     27          8           0        7.785459    0.333022    2.580925
     28          6           0        7.008448    0.665087    3.716649
     29          6           0        3.701389   -0.439867   -0.092894
     30          6           0        3.102753   -1.441603   -0.862424
     31          6           0        1.719911   -1.473009   -0.986810
     32          6           0        0.956486   -0.507626   -0.322018
     33          7           0        1.513467    0.461712    0.415343
     34          6           0        2.840277    0.486803    0.510045
     35          6           0       -0.541089   -0.524205   -0.344729
     36          7           0       -1.145732   -0.304243    0.821416
     37          6           0       -2.477287   -0.297175    0.872305
     38          6           0       -3.297101   -0.508514   -0.238469
     39          6           0       -2.667157   -0.728444   -1.468657
     40          6           0       -1.275820   -0.737228   -1.532641
     41          8           0       -0.565489   -0.937615   -2.673644
     42          6           0       -1.283610   -1.061517   -3.887207
     43          6           0       -4.775116   -0.493091   -0.120669
     44          6           0       -5.439771   -1.098474    0.949721
     45          6           0       -6.826701   -1.054194    1.005719
     46          6           0       -7.526601   -0.397128   -0.011639
     47          7           0       -6.905849    0.194004   -1.040502
     48          6           0       -5.577043    0.138963   -1.080372
     49          6           0       -9.018499   -0.262535    0.008678
     50          7           0       -9.501295    0.937667   -0.306479
     51          6           0      -10.820499    1.127870   -0.314731
     52          6           0      -11.748431    0.128939   -0.012014
     53          6           0      -11.247160   -1.138181    0.307254
     54          6           0       -9.870284   -1.345809    0.321073
     55          8           0       -9.279776   -2.535159    0.614620
     56          6           0      -10.119177   -3.646369    0.862966
     57          6           0      -13.206565    0.397193   -0.033992
     58          6           0      -14.120228   -0.499191   -0.595423
     59          6           0      -15.474511   -0.192319   -0.585151
     60          6           0      -15.889947    1.019632   -0.023738
     61          7           0      -15.029350    1.887833    0.522019
     62          6           0      -13.736428    1.572289    0.516173
     63          6           0      -17.323957    1.455626   -0.045710
     64          7           0      -17.539071    2.723345   -0.392771
     65          6           0      -18.792946    3.181717   -0.420352
     66          6           0      -19.892530    2.398174   -0.094952
     67          6           0      -19.684408    1.071485    0.277013
     68          6           0      -18.379184    0.582104    0.302018
     69          8           0      -18.042349   -0.688392    0.653464
     70          6           0      -19.080028   -1.550499    1.078541
     71          1           0       21.721233   -0.035622   -0.229562
     72          1           0       20.417708   -2.147019   -0.699423
     73          1           0       17.895602   -2.033006   -0.615623
     74          1           0       20.451113    2.052373    0.295477
     75          1           0       14.028020   -1.983334    0.681282
     76          1           0       13.699751    2.109650   -0.661270
     77          1           0       16.817535    4.302702   -0.676904
     78          1           0       15.474719    3.745768    0.380072
     79          1           0       17.170631    3.174787    0.680854
     80          1           0       12.158558   -1.111286    2.072608
     81          1           0        9.664088   -1.211724    2.177924
     82          1           0       11.745640    1.008843   -1.660846
     83          1           0        5.643588   -0.784514   -1.995000
     84          1           0        5.098158    0.125871    2.180147
     85          1           0        6.363877    1.542742    3.524787
     86          1           0        6.380314   -0.183597    4.045861
     87          1           0        7.725309    0.911740    4.512593
     88          1           0        3.718109   -2.207946   -1.345735
     89          1           0        1.230238   -2.245787   -1.583309
     90          1           0        3.259532    1.316787    1.095901
     91          1           0       -2.920843   -0.091615    1.855032
     92          1           0       -3.272787   -0.908262   -2.360317
     93          1           0       -1.933925   -1.956169   -3.889026
     94          1           0       -0.526991   -1.165490   -4.677731
     95          1           0       -1.897212   -0.164077   -4.088686
     96          1           0       -4.872023   -1.617698    1.729213
     97          1           0       -7.367904   -1.529876    1.826426
     98          1           0       -5.105413    0.651344   -1.930585
     99          1           0      -11.161852    2.131631   -0.597858
    100          1           0      -11.941056   -1.943896    0.560203
    101          1           0      -10.765486   -3.869768   -0.006238
    102          1           0       -9.448938   -4.499251    1.041256
    103          1           0      -10.751815   -3.490759    1.756864
    104          1           0      -13.768809   -1.426424   -1.061523
    105          1           0      -16.206893   -0.876754   -1.018882
    106          1           0      -13.065476    2.296479    0.998102
    107          1           0      -18.917500    4.230547   -0.717454
    108          1           0      -20.904319    2.813823   -0.127257
    109          1           0      -20.533004    0.437807    0.546026
    110          1           0      -19.817525   -1.732628    0.274372
    111          1           0      -18.596018   -2.501322    1.343637
    112          1           0      -19.602382   -1.150732    1.967589
 ---------------------------------------------------------------------

 The electronic state is 1-A.
 Alpha  occ. eigenvalues --  -18.98131 -18.98052 -18.97921 -18.97868 -18.94488
 Alpha  occ. eigenvalues --  -14.16809 -14.16408 -14.16401 -14.16398 -14.16299
 Alpha  occ. eigenvalues --  -14.16263 -14.16126 -14.16081 -14.16054 -14.15966
 Alpha  occ. eigenvalues --  -10.14431 -10.14309 -10.14305 -10.14239 -10.13754
 Alpha  occ. eigenvalues --  -10.13728 -10.13419 -10.13371 -10.13062 -10.11023
 Alpha  occ. eigenvalues --  -10.11010 -10.10957 -10.10948 -10.10900 -10.10897
 Alpha  occ. eigenvalues --  -10.10888 -10.10854 -10.10816 -10.10747 -10.10589
 Alpha  occ. eigenvalues --  -10.10320 -10.10315 -10.10247 -10.10239 -10.10232
 Alpha  occ. eigenvalues --  -10.10156 -10.09667 -10.09650 -10.09585 -10.09557
 Alpha  occ. eigenvalues --  -10.09456 -10.09416 -10.09346 -10.09329 -10.09163
 Alpha  occ. eigenvalues --  -10.09106 -10.09093 -10.09088 -10.09084 -10.09019
 Alpha  occ. eigenvalues --  -10.09006 -10.08984 -10.08962 -10.08937 -10.08926
 Alpha  occ. eigenvalues --  -10.08872 -10.08841 -10.08672 -10.08393 -10.08027
 Alpha  occ. eigenvalues --  -10.07956 -10.07907 -10.07879 -10.07822 -10.07482
 Alpha  occ. eigenvalues --   -1.17324  -1.17235  -1.17120  -1.17058  -1.14031
 Alpha  occ. eigenvalues --   -1.05332  -1.05224  -1.05136  -1.05067  -1.04984
 Alpha  occ. eigenvalues --   -1.03470  -1.03380  -1.03170  -1.02976  -1.02885
 Alpha  occ. eigenvalues --   -0.94100  -0.93838  -0.93481  -0.93115  -0.90742
 Alpha  occ. eigenvalues --   -0.90399  -0.90259  -0.90107  -0.89924  -0.89830
 Alpha  occ. eigenvalues --   -0.89594  -0.89278  -0.88915  -0.88682  -0.88474
 Alpha  occ. eigenvalues --   -0.86745  -0.85963  -0.84937  -0.84027  -0.83357
 Alpha  occ. eigenvalues --   -0.81904  -0.81687  -0.81392  -0.80956  -0.79171
 Alpha  occ. eigenvalues --   -0.78115  -0.77024  -0.75857  -0.75157  -0.74597
 Alpha  occ. eigenvalues --   -0.74298  -0.73715  -0.73385  -0.73271  -0.72406
 Alpha  occ. eigenvalues --   -0.71942  -0.71589  -0.71463  -0.71064  -0.70646
 Alpha  occ. eigenvalues --   -0.70470  -0.70042  -0.69491  -0.69104  -0.68640
 Alpha  occ. eigenvalues --   -0.65172  -0.64962  -0.64761  -0.64519  -0.63865
 Alpha  occ. eigenvalues --   -0.62613  -0.62607  -0.62201  -0.62108  -0.61681
 Alpha  occ. eigenvalues --   -0.61594  -0.61292  -0.60943  -0.60794  -0.60503
 Alpha  occ. eigenvalues --   -0.59022  -0.58757  -0.58696  -0.58595  -0.58521
 Alpha  occ. eigenvalues --   -0.58401  -0.58248  -0.57795  -0.57743  -0.57530
 Alpha  occ. eigenvalues --   -0.57372  -0.57009  -0.56743  -0.56347  -0.55729
 Alpha  occ. eigenvalues --   -0.55563  -0.55068  -0.54897  -0.54704  -0.54274
 Alpha  occ. eigenvalues --   -0.53725  -0.53420  -0.53281  -0.53246  -0.52863
 Alpha  occ. eigenvalues --   -0.52738  -0.52600  -0.52375  -0.52137  -0.52023
 Alpha  occ. eigenvalues --   -0.51759  -0.51661  -0.51246  -0.50907  -0.50758
 Alpha  occ. eigenvalues --   -0.50720  -0.50448  -0.50358  -0.50266  -0.50186
 Alpha  occ. eigenvalues --   -0.50068  -0.49755  -0.49374  -0.49337  -0.49242
 Alpha  occ. eigenvalues --   -0.49099  -0.48818  -0.48585  -0.47935  -0.47889
 Alpha  occ. eigenvalues --   -0.47465  -0.46735  -0.46396  -0.46273  -0.46162
 Alpha  occ. eigenvalues --   -0.45086  -0.44300  -0.44205  -0.44136  -0.44066
 Alpha  occ. eigenvalues --   -0.43873  -0.43595  -0.43426  -0.43275  -0.43002
 Alpha  occ. eigenvalues --   -0.41233  -0.40818  -0.40124  -0.39372  -0.38630
 Alpha  occ. eigenvalues --   -0.38094  -0.37577  -0.37497  -0.37458  -0.37356
 Alpha  occ. eigenvalues --   -0.37290  -0.36099  -0.35602  -0.35387  -0.35130
 Alpha  occ. eigenvalues --   -0.34983  -0.34912  -0.34654  -0.34532  -0.34322
 Alpha  occ. eigenvalues --   -0.34242  -0.34216  -0.34069  -0.33667  -0.33512
 Alpha  occ. eigenvalues --   -0.33099  -0.32243  -0.31908  -0.31115  -0.30195
 Alpha  occ. eigenvalues --   -0.29494
 Alpha virt. eigenvalues --   -0.00064   0.00673   0.01857   0.03202   0.04419
 Alpha virt. eigenvalues --    0.05116   0.05304   0.05318   0.05382   0.05457
 Alpha virt. eigenvalues --    0.05897   0.06050   0.06140   0.06227   0.06496

  Beta  occ. eigenvalues --  -18.98131 -18.98052 -18.97921 -18.97868 -18.94488
  Beta  occ. eigenvalues --  -14.16809 -14.16408 -14.16401 -14.16398 -14.16299
  Beta  occ. eigenvalues --  -14.16263 -14.16126 -14.16081 -14.16054 -14.15966
  Beta  occ. eigenvalues --  -10.14431 -10.14309 -10.14305 -10.14239 -10.13754
  Beta  occ. eigenvalues --  -10.13728 -10.13419 -10.13371 -10.13062 -10.11023
  Beta  occ. eigenvalues --  -10.11010 -10.10957 -10.10948 -10.10900 -10.10897
  Beta  occ. eigenvalues --  -10.10888 -10.10854 -10.10816 -10.10747 -10.10589
  Beta  occ. eigenvalues --  -10.10320 -10.10315 -10.10247 -10.10239 -10.10232
  Beta  occ. eigenvalues --  -10.10156 -10.09667 -10.09650 -10.09585 -10.09557
  Beta  occ. eigenvalues --  -10.09456 -10.09416 -10.09346 -10.09329 -10.09163
  Beta  occ. eigenvalues --  -10.09106 -10.09093 -10.09088 -10.09084 -10.09019
  Beta  occ. eigenvalues --  -10.09006 -10.08984 -10.08962 -10.08937 -10.08926
  Beta  occ. eigenvalues --  -10.08872 -10.08841 -10.08672 -10.08393 -10.08027
  Beta  occ. eigenvalues --  -10.07956 -10.07907 -10.07879 -10.07822 -10.07482
  Beta  occ. eigenvalues --   -1.17324  -1.17235  -1.17120  -1.17058  -1.14031
  Beta  occ. eigenvalues --   -1.05332  -1.05224  -1.05136  -1.05067  -1.04984
  Beta  occ. eigenvalues --   -1.03470  -1.03380  -1.03170  -1.02976  -1.02885
  Beta  occ. eigenvalues --   -0.94100  -0.93838  -0.93481  -0.93115  -0.90742
  Beta  occ. eigenvalues --   -0.90399  -0.90259  -0.90107  -0.89924  -0.89830
  Beta  occ. eigenvalues --   -0.89594  -0.89278  -0.88915  -0.88682  -0.88474
  Beta  occ. eigenvalues --   -0.86745  -0.85963  -0.84937  -0.84027  -0.83357
  Beta  occ. eigenvalues --   -0.81904  -0.81687  -0.81392  -0.80956  -0.79171
  Beta  occ. eigenvalues --   -0.78115  -0.77024  -0.75857  -0.75157  -0.74597
  Beta  occ. eigenvalues --   -0.74298  -0.73715  -0.73385  -0.73271  -0.72406
  Beta  occ. eigenvalues --   -0.71942  -0.71589  -0.71463  -0.71064  -0.70646
  Beta  occ. eigenvalues --   -0.70470  -0.70042  -0.69491  -0.69104  -0.68640
  Beta  occ. eigenvalues --   -0.65172  -0.64962  -0.64761  -0.64519  -0.63865
  Beta  occ. eigenvalues --   -0.62613  -0.62607  -0.62201  -0.62108  -0.61681
  Beta  occ. eigenvalues --   -0.61594  -0.61292  -0.60943  -0.60794  -0.60503
  Beta  occ. eigenvalues --   -0.59022  -0.58757  -0.58696  -0.58595  -0.58521
  Beta  occ. eigenvalues --   -0.58401  -0.58248  -0.57795  -0.57743  -0.57530
  Beta  occ. eigenvalues --   -0.57372  -0.57009  -0.56743  -0.56347  -0.55729
  Beta  occ. eigenvalues --   -0.55563  -0.55068  -0.54897  -0.54704  -0.54274
  Beta  occ. eigenvalues --   -0.53725  -0.53420  -0.53281  -0.53246  -0.52863
  Beta  occ. eigenvalues --   -0.52738  -0.52600  -0.52375  -0.52137  -0.52023
  Beta  occ. eigenvalues --   -0.51759  -0.51661  -0.51246  -0.50907  -0.50758
  Beta  occ. eigenvalues --   -0.50720  -0.50448  -0.50358  -0.50266  -0.50186
  Beta  occ. eigenvalues --   -0.50068  -0.49755  -0.49374  -0.49337  -0.49242
  Beta  occ. eigenvalues --   -0.49099  -0.48818  -0.48585  -0.47935  -0.47889
  Beta  occ. eigenvalues --   -0.47465  -0.46735  -0.46396  -0.46273  -0.46162
  Beta  occ. eigenvalues --   -0.45086  -0.44300  -0.44205  -0.44136  -0.44066
  Beta  occ. eigenvalues --   -0.43873  -0.43595  -0.43426  -0.43275  -0.43002
  Beta  occ. eigenvalues --   -0.41233  -0.40818  -0.40124  -0.39372  -0.38630
  Beta  occ. eigenvalues --   -0.38094  -0.37577  -0.37497  -0.37458  -0.37356
  Beta  occ. eigenvalues --   -0.37290  -0.36099  -0.35602  -0.35387  -0.35130
  Beta  occ. eigenvalues --   -0.34983  -0.34912  -0.34654  -0.34532  -0.34322
  Beta  occ. eigenvalues --   -0.34242  -0.34216  -0.34069  -0.33667  -0.33512
  Beta  occ. eigenvalues --   -0.33099  -0.32243  -0.31908  -0.31115  -0.30195
  Beta  occ. eigenvalues --   -0.29494
  Beta virt. eigenvalues --   -0.00064   0.00673   0.01857   0.03202   0.04419
  Beta virt. eigenvalues --    0.05116   0.05304   0.05318   0.05382   0.05457
  Beta virt. eigenvalues --    0.05897   0.06050   0.06140   0.06227   0.06496

 Mulliken charges and spin densities:
               1          2
     1  C   -0.044945   0.000000
     2  C    0.063243   0.000000
     3  C    0.017461   0.000000
     4  C    0.077509  -0.000000
     5  N   -0.191789   0.000000
     6  C    0.086796  -0.000000
     7  C    0.055265   0.000000
     8  N   -0.191167  -0.000000
     9  C    0.079777   0.000000
    10  C   -0.057019  -0.000000
    11  C    0.113585   0.000000
    12  C    0.032331  -0.000000
    13  O   -0.250672   0.000000
    14  C    0.074922   0.000000
    15  C   -0.066178   0.000000
    16  C    0.059373  -0.000000
    17  C    0.031855   0.000000
    18  C    0.068487   0.000000
    19  N   -0.163438  -0.000000
    20  C    0.083504   0.000000
    21  C    0.026542  -0.000000
    22  N   -0.152390   0.000000
    23  C    0.072730  -0.000000
    24  C   -0.061414  -0.000000
    25  C    0.019388  -0.000000
    26  C    0.121950   0.000000
    27  O   -0.249114  -0.000000
    28  C    0.052965  -0.000000
    29  C   -0.066044   0.000000
    30  C    0.059722  -0.000000
    31  C    0.030845   0.000000
    32  C    0.069433  -0.000000
    33  N   -0.163852  -0.000000
    34  C    0.082355   0.000000
    35  C    0.026276   0.000000
    36  N   -0.154052   0.000000
    37  C    0.073191  -0.000000
    38  C   -0.061423   0.000000
    39  C    0.019921  -0.000000
    40  C    0.122773   0.000000
    41  O   -0.248472   0.000000
    42  C    0.052990  -0.000000
    43  C   -0.067364  -0.000000
    44  C    0.060006   0.000000
    45  C    0.032624  -0.000000
    46  C    0.068057  -0.000000
    47  N   -0.163649   0.000000
    48  C    0.082433  -0.000000
    49  C    0.027311   0.000000
    50  N   -0.151821  -0.000000
    51  C    0.076091   0.000000
    52  C   -0.064447  -0.000000
    53  C    0.019937   0.000000
    54  C    0.121016  -0.000000
    55  O   -0.248466  -0.000000
    56  C    0.054162   0.000000
    57  C   -0.068825   0.000000
    58  C    0.057677  -0.000000
    59  C    0.031524  -0.000000
    60  C    0.072561   0.000000
    61  N   -0.163593   0.000000
    62  C    0.087343  -0.000000
    63  C    0.021974  -0.000000
    64  N   -0.156887   0.000000
    65  C    0.074769  -0.000000
    66  C   -0.034711   0.000000
    67  C    0.003545  -0.000000
    68  C    0.114426   0.000000
    69  O   -0.248207   0.000000
    70  C    0.052317   0.000000
    71  H    0.000439  -0.000000
    72  H    0.004108  -0.000000
    73  H    0.002851  -0.000000
    74  H    0.006495  -0.000000
    75  H    0.004726  -0.000000
    76  H   -0.003311   0.000000
    77  H    0.046248  -0.000000
    78  H    0.023436  -0.000000
    79  H    0.041280  -0.000000
    80  H   -0.005905   0.000000
    81  H   -0.005926   0.000000
    82  H    0.008415   0.000000
    83  H    0.002366  -0.000000
    84  H    0.000027   0.000000
    85  H    0.051922  -0.000000
    86  H    0.051112  -0.000000
    87  H    0.059148   0.000000
    88  H   -0.004762   0.000000
    89  H   -0.006189  -0.000000
    90  H    0.003875  -0.000000
    91  H    0.002919  -0.000000
    92  H   -0.001445   0.000000
    93  H    0.049937   0.000000
    94  H    0.060092   0.000000
    95  H    0.052255  -0.000000
    96  H   -0.005190  -0.000000
    97  H   -0.006069  -0.000000
    98  H    0.004393   0.000000
    99  H    0.008297   0.000000
   100  H   -0.006026  -0.000000
   101  H    0.047988   0.000000
   102  H    0.059157  -0.000000
   103  H    0.050302  -0.000000
   104  H   -0.010976   0.000000
   105  H   -0.007560   0.000000
   106  H    0.009687  -0.000000
   107  H    0.008399   0.000000
   108  H    0.000336   0.000000
   109  H    0.003985   0.000000
   110  H    0.048055  -0.000000
   111  H    0.057586  -0.000000
   112  H    0.050500   0.000000
 Sum of Mulliken charges =  -0.00000   0.00000

 Dipole moment (field-independent basis, Debye):
    X=             -6.4664    Y=             -8.1231    Z=              2.7111  Tot=             10.7307
 Quadrupole moment (field-independent basis, Debye-Ang):
   XX=           -229.8057   YY=           -379.3910   ZZ=           -376.7051
   XY=             87.0409   XZ=             14.7627   YZ=              3.3325

 Normal termination of Gaussian 16 at Sun Jul 26 00:58:20 2020.
