 Gaussian 16, Revision A.03,
 Gaussian 16:  EM64L-G16RevA.03 25-Dec-2016

 ---------------------------------------------------------------
 #P uLC-wPBE/cc-pVDZ iop(3/107=0063300000, 3/108=0063300000) opt
 ---------------------------------------------------------------

 --------------
 H6 C9 S1 N1 F1
 --------------
 Symbolic Z-matrix:
 Charge =  0 Multiplicity = 1

 SCF Done:  E(ULC-wPBE) =  -898.702176169     A.U. after   16 cycles
 SCF Done:  E(ULC-wPBE) =  -898.729897480     A.U. after   13 cycles
 SCF Done:  E(ULC-wPBE) =  -898.733786097     A.U. after   13 cycles
 SCF Done:  E(ULC-wPBE) =  -898.733792672     A.U. after   13 cycles
 SCF Done:  E(ULC-wPBE) =  -898.734125405     A.U. after   11 cycles
 SCF Done:  E(ULC-wPBE) =  -898.734167359     A.U. after   11 cycles
 SCF Done:  E(ULC-wPBE) =  -898.734169494     A.U. after    9 cycles
 SCF Done:  E(ULC-wPBE) =  -898.734169669     A.U. after    7 cycles
 SCF Done:  E(ULC-wPBE) =  -898.734169704     A.U. after    7 cycles
 SCF Done:  E(ULC-wPBE) =  -898.734169729     A.U. after    7 cycles
 Optimization completed.
    -- Stationary point found.

                         Standard orientation:
 ---------------------------------------------------------------------
 Center     Atomic      Atomic             Coordinates (Angstroms)
 Number     Number       Type             X           Y           Z
 ---------------------------------------------------------------------
      1          6           0        3.445839   -0.275064    0.000041
      2          6           0        2.746702   -1.494902    0.000343
      3          6           0        1.349653   -1.504872    0.000332
      4          6           0        0.605317   -0.299666    0.000040
      5          6           0        1.342112    0.901332   -0.000194
      6          9           0        0.671614    2.088686   -0.000427
      7          6           0        2.737394    0.934102   -0.000231
      8          6           0       -0.860955   -0.362756   -0.000097
      9          7           0       -1.522201   -1.508324   -0.000570
     10          6           0       -2.876349   -1.301119   -0.000426
     11          6           0       -3.289300    0.015231    0.000099
     12         16           0       -1.912342    1.067546    0.000513
     13          1           0        4.544868   -0.261384   -0.000038
     14          1           0        3.297375   -2.445937    0.000677
     15          1           0        0.780281   -2.443882    0.000470
     16          1           0        3.243390    1.908693   -0.000461
     17          1           0       -3.551184   -2.167292   -0.000823
     18          1           0       -4.308858    0.415447    0.000349
 ---------------------------------------------------------------------

 The electronic state is 1-A.
 Alpha  occ. eigenvalues --  -88.14463 -24.33523 -14.03776 -10.02619 -10.00258
 Alpha  occ. eigenvalues --   -9.96791  -9.96752  -9.96653  -9.95469  -9.95283
 Alpha  occ. eigenvalues --   -9.95003  -9.94747  -7.74691  -5.76751  -5.76330
 Alpha  occ. eigenvalues --   -5.76017  -1.16495  -0.91679  -0.82830  -0.76406
 Alpha  occ. eigenvalues --   -0.75178  -0.71957  -0.69167  -0.61123  -0.60124
 Alpha  occ. eigenvalues --   -0.56837  -0.54182  -0.51788  -0.48981  -0.47460
 Alpha  occ. eigenvalues --   -0.46290  -0.44947  -0.43215  -0.41568  -0.40937
 Alpha  occ. eigenvalues --   -0.40648  -0.39192  -0.36263  -0.36195  -0.35431
 Alpha  occ. eigenvalues --   -0.34106  -0.30081  -0.28563  -0.27007  -0.26457
 Alpha  occ. eigenvalues --   -0.23617
 Alpha virt. eigenvalues --   -0.05074  -0.00943   0.01424   0.03307   0.05218
 Alpha virt. eigenvalues --    0.06891   0.08890   0.10113   0.11962   0.12628
 Alpha virt. eigenvalues --    0.13772   0.14340   0.14667   0.16250   0.21285

  Beta  occ. eigenvalues --  -88.14463 -24.33523 -14.03776 -10.02619 -10.00258
  Beta  occ. eigenvalues --   -9.96791  -9.96752  -9.96653  -9.95469  -9.95283
  Beta  occ. eigenvalues --   -9.95003  -9.94747  -7.74691  -5.76751  -5.76330
  Beta  occ. eigenvalues --   -5.76017  -1.16495  -0.91679  -0.82830  -0.76406
  Beta  occ. eigenvalues --   -0.75178  -0.71957  -0.69167  -0.61123  -0.60124
  Beta  occ. eigenvalues --   -0.56837  -0.54182  -0.51788  -0.48981  -0.47460
  Beta  occ. eigenvalues --   -0.46290  -0.44947  -0.43215  -0.41568  -0.40937
  Beta  occ. eigenvalues --   -0.40648  -0.39192  -0.36263  -0.36195  -0.35431
  Beta  occ. eigenvalues --   -0.34106  -0.30081  -0.28563  -0.27007  -0.26457
  Beta  occ. eigenvalues --   -0.23617
  Beta virt. eigenvalues --   -0.05074  -0.00943   0.01424   0.03307   0.05218
  Beta virt. eigenvalues --    0.06891   0.08890   0.10113   0.11962   0.12628
  Beta virt. eigenvalues --    0.13772   0.14340   0.14667   0.16250   0.21285

 Mulliken charges and spin densities:
               1          2
     1  C    0.035642   0.000000
     2  C    0.044813  -0.000000
     3  C    0.039068  -0.000000
     4  C    0.015827   0.000000
     5  C    0.056245  -0.000000
     6  F   -0.127308   0.000000
     7  C    0.033856   0.000000
     8  C   -0.013192  -0.000000
     9  N   -0.180274   0.000000
    10  C    0.130544  -0.000000
    11  C   -0.163464   0.000000
    12  S    0.153150  -0.000000
    13  H   -0.012478  -0.000000
    14  H   -0.014413  -0.000000
    15  H   -0.016559   0.000000
    16  H   -0.004281  -0.000000
    17  H   -0.000167   0.000000
    18  H    0.022991  -0.000000
 Sum of Mulliken charges =  -0.00000  -0.00000

 Dipole moment (field-independent basis, Debye):
    X=              0.3591    Y=              0.1193    Z=              0.0007  Tot=              0.3784
 Quadrupole moment (field-independent basis, Debye-Ang):
   XX=            -58.7474   YY=            -73.5902   ZZ=            -78.1684
   XY=             -0.5717   XZ=             -0.0006   YZ=             -0.0012

 Normal termination of Gaussian 16 at Sat Jul 25 05:19:45 2020.
