 Gaussian 16, Revision A.03,
 Gaussian 16:  EM64L-G16RevA.03 25-Dec-2016

 ---------------------------------------------------------------
 #P uLC-wPBE/cc-pVDZ iop(3/107=0257400000, 3/108=0257400000) opt
 ---------------------------------------------------------------

 -----------------
 H47 C60 S5 O10 F5
 -----------------
 Symbolic Z-matrix:
 Charge =  0 Multiplicity = 1

 SCF Done:  E(ULC-wPBE) =  -5553.42676153     A.U. after   18 cycles
 SCF Done:  E(ULC-wPBE) =  -5553.52131043     A.U. after   13 cycles
 SCF Done:  E(ULC-wPBE) =  -5553.61698091     A.U. after   14 cycles
 SCF Done:  E(ULC-wPBE) =  -5553.64531901     A.U. after   14 cycles
 SCF Done:  E(ULC-wPBE) =  -5553.65535081     A.U. after   13 cycles
 SCF Done:  E(ULC-wPBE) =  -5553.66238674     A.U. after   13 cycles
 SCF Done:  E(ULC-wPBE) =  -5553.66724714     A.U. after   13 cycles
 SCF Done:  E(ULC-wPBE) =  -5553.67073596     A.U. after   13 cycles
 SCF Done:  E(ULC-wPBE) =  -5553.67292070     A.U. after   14 cycles
 SCF Done:  E(ULC-wPBE) =  -5553.67412960     A.U. after   13 cycles
 SCF Done:  E(ULC-wPBE) =  -5553.67731996     A.U. after   10 cycles
 SCF Done:  E(ULC-wPBE) =  -5553.67732319     A.U. after   10 cycles
 SCF Done:  E(ULC-wPBE) =  -5553.67732534     A.U. after   10 cycles
 SCF Done:  E(ULC-wPBE) =  -5553.67732803     A.U. after   10 cycles
 SCF Done:  E(ULC-wPBE) =  -5553.67732902     A.U. after   10 cycles
 SCF Done:  E(ULC-wPBE) =  -5553.67732920     A.U. after    7 cycles
 SCF Done:  E(ULC-wPBE) =  -5553.67732946     A.U. after    7 cycles
 SCF Done:  E(ULC-wPBE) =  -5553.67732968     A.U. after    7 cycles
 SCF Done:  E(ULC-wPBE) =  -5553.67732971     A.U. after    5 cycles
 SCF Done:  E(ULC-wPBE) =  -5553.67732978     A.U. after    5 cycles
 Optimization completed.
    -- Stationary point found.

                         Standard orientation:
 ---------------------------------------------------------------------
 Center     Atomic      Atomic             Coordinates (Angstroms)
 Number     Number       Type             X           Y           Z
 ---------------------------------------------------------------------
      1          6           0      -18.699422   -3.070606    0.641099
      2          6           0      -17.899567   -3.151424   -0.494342
      3          6           0      -16.791890   -2.311488   -0.572767
      4          9           0      -16.014707   -2.380087   -1.675116
      5          6           0      -16.442312   -1.399727    0.425524
      6          6           0      -17.268076   -1.355300    1.575952
      7          8           0      -16.875382   -0.484446    2.539211
      8          6           0      -17.685427   -0.365402    3.694207
      9          6           0      -18.395156   -2.181567    1.675775
     10          6           0      -15.267803   -0.519119    0.288842
     11          6           0      -15.239626    0.862841    0.329349
     12          8           0      -16.396257    1.562997    0.471296
     13          6           0      -16.279315    2.973486    0.520087
     14          6           0      -13.926546    1.405799    0.183265
     15          6           0      -12.963268    0.432885    0.027371
     16         16           0      -13.665536   -1.147385    0.071750
     17          6           0      -11.512364    0.620998   -0.157815
     18          6           0      -10.870659    1.722652    0.417067
     19          6           0       -9.503778    1.884938    0.219684
     20          9           0       -8.906467    2.937735    0.811280
     21          6           0       -8.718883    1.005595   -0.531468
     22          6           0       -9.386306   -0.111645   -1.090024
     23          8           0       -8.597053   -0.956831   -1.803233
     24          6           0       -9.199098   -2.100091   -2.386972
     25          6           0      -10.759814   -0.297111   -0.910491
     26          6           0       -7.278739    1.247793   -0.719633
     27          6           0       -6.681103    2.415637   -1.161366
     28          8           0       -7.449323    3.473082   -1.532857
     29          6           0       -6.765026    4.660672   -1.890398
     30          6           0       -5.254643    2.349532   -1.183172
     31          6           0       -4.774253    1.129881   -0.759349
     32         16           0       -6.069090    0.056775   -0.354375
     33          6           0       -3.366540    0.700768   -0.657082
     34          6           0       -2.408744    1.228711   -1.529485
     35          6           0       -1.088970    0.811049   -1.404859
     36          9           0       -0.180458    1.325400   -2.261734
     37          6           0       -0.652473   -0.118748   -0.459162
     38          6           0       -1.635472   -0.632157    0.422502
     39          8           0       -1.179156   -1.498644    1.359857
     40          6           0       -2.122668   -2.079624    2.242640
     41          6           0       -2.970969   -0.229501    0.319306
     42          6           0        0.754519   -0.547581   -0.382922
     43          6           0        1.250552   -1.836049   -0.469057
     44          8           0        0.405257   -2.877272   -0.689453
     45          6           0        0.989819   -4.166118   -0.743206
     46          6           0        2.670814   -1.904757   -0.334764
     47          6           0        3.248374   -0.666841   -0.153446
     48         16           0        2.049777    0.580050   -0.135105
     49          6           0        4.680359   -0.354138    0.010467
     50          6           0        5.532476   -1.281339    0.619945
     51          6           0        6.878703   -0.963255    0.755257
     52          9           0        7.683789   -1.867766    1.353640
     53          6           0        7.441817    0.239581    0.324747
     54          6           0        6.564290    1.159916   -0.300088
     55          8           0        7.142647    2.300694   -0.748891
     56          6           0        6.307904    3.279435   -1.342705
     57          6           0        5.205002    0.865922   -0.449292
     58          6           0        8.871508    0.539547    0.512543
     59          6           0        9.428225    1.621667    1.170188
     60          8           0        8.625494    2.537371    1.773886
     61          6           0        9.272753    3.626734    2.406279
     62          6           0       10.856422    1.620602    1.151558
     63          6           0       11.378917    0.533899    0.484566
     64         16           0       10.119667   -0.480160   -0.130436
     65          6           0       12.800442    0.201307    0.275738
     66          6           0       13.749610    1.222691    0.168849
     67          6           0       15.085654    0.884190   -0.016466
     68          9           0       15.973293    1.889501   -0.146409
     69          6           0       15.548192   -0.431940   -0.100327
     70          6           0       14.567575   -1.449149   -0.006073
     71          8           0       15.042156   -2.718858   -0.103745
     72          6           0       14.112041   -3.785908   -0.028906
     73          6           0       13.218400   -1.137531    0.183802
     74          6           0       16.981558   -0.721471   -0.276258
     75          6           0       18.027910   -0.228115    0.483223
     76          8           0       17.772681    0.557501    1.563628
     77          6           0       18.896278    1.112271    2.222594
     78          6           0       19.314393   -0.651200    0.018898
     79          6           0       19.217400   -1.461237   -1.083347
     80         16           0       17.589895   -1.724618   -1.557940
     81          1           0      -19.581390   -3.715444    0.730537
     82          1           0      -18.113728   -3.838072   -1.318833
     83          1           0      -17.746313   -1.319411    4.254807
     84          1           0      -18.709527   -0.025629    3.442427
     85          1           0      -17.198415    0.392639    4.327446
     86          1           0      -19.037152   -2.145258    2.559919
     87          1           0      -15.655753    3.304864    1.374632
     88          1           0      -17.301844    3.362281    0.649865
     89          1           0      -15.855689    3.384609   -0.418183
     90          1           0      -13.693458    2.472847    0.152952
     91          1           0      -11.403944    2.440676    1.046849
     92          1           0       -8.386052   -2.639667   -2.896944
     93          1           0       -9.651888   -2.760084   -1.621139
     94          1           0       -9.972092   -1.820068   -3.129249
     95          1           0      -11.270285   -1.143000   -1.379185
     96          1           0       -6.121333    4.512356   -2.780666
     97          1           0       -7.543229    5.401855   -2.131733
     98          1           0       -6.147022    5.044845   -1.054564
     99          1           0       -4.597820    3.173280   -1.472428
    100          1           0       -2.672374    1.930072   -2.326335
    101          1           0       -2.623469   -1.316045    2.870144
    102          1           0       -2.890379   -2.660822    1.695001
    103          1           0       -1.548523   -2.758499    2.892268
    104          1           0       -3.719108   -0.609305    1.020589
    105          1           0        1.499988   -4.425723    0.206081
    106          1           0        0.161165   -4.872462   -0.910317
    107          1           0        1.712160   -4.256385   -1.579204
    108          1           0        3.259432   -2.822387   -0.407678
    109          1           0        5.166016   -2.229830    1.023040
    110          1           0        5.819627    2.900584   -2.262288
    111          1           0        5.530549    3.634910   -0.638158
    112          1           0        6.969695    4.118970   -1.606769
    113          1           0        4.539280    1.569327   -0.957053
    114          1           0        9.872624    4.221194    1.688237
    115          1           0        8.472725    4.262094    2.818365
    116          1           0        9.927832    3.291801    3.235461
    117          1           0       11.486278    2.366344    1.642438
    118          1           0       13.468858    2.279716    0.190606
    119          1           0       13.592967   -3.807730    0.949471
    120          1           0       13.358719   -3.729957   -0.839195
    121          1           0       14.702851   -4.707717   -0.145617
    122          1           0       12.476200   -1.933120    0.293176
    123          1           0       19.543289    0.328214    2.665304
    124          1           0       18.496668    1.743464    3.032177
    125          1           0       19.502724    1.741014    1.540422
    126          1           0       20.266973   -0.376520    0.478104
    127          1           0       20.033228   -1.932409   -1.636141
 ---------------------------------------------------------------------

 Alpha  occ. eigenvalues --   -0.58836  -0.58578  -0.58501  -0.58274  -0.58198
 Alpha  occ. eigenvalues --   -0.56791  -0.56639  -0.56530  -0.56382  -0.56303
 Alpha  occ. eigenvalues --   -0.55442  -0.55404  -0.55326  -0.55245  -0.55156
 Alpha  occ. eigenvalues --   -0.55063  -0.54888  -0.54770  -0.54667  -0.54571
 Alpha  occ. eigenvalues --   -0.54523  -0.54444  -0.54391  -0.54313  -0.54212
 Alpha  occ. eigenvalues --   -0.53423  -0.53316  -0.53264  -0.53236  -0.53134
 Alpha  occ. eigenvalues --   -0.52877  -0.52867  -0.52512  -0.52355  -0.52242
 Alpha  occ. eigenvalues --   -0.51549  -0.51301  -0.51147  -0.51120  -0.51060
 Alpha  occ. eigenvalues --   -0.50800  -0.50497  -0.50102  -0.49901  -0.49381
 Alpha  occ. eigenvalues --   -0.49240  -0.48186  -0.48086  -0.48012  -0.47870
 Alpha  occ. eigenvalues --   -0.47852  -0.47763  -0.47659  -0.47524  -0.47376
 Alpha  occ. eigenvalues --   -0.47199  -0.47146  -0.47039  -0.46930  -0.46858
 Alpha  occ. eigenvalues --   -0.46617  -0.46294  -0.46187  -0.45940  -0.45778
 Alpha  occ. eigenvalues --   -0.45354  -0.45282  -0.45009  -0.44881  -0.44727
 Alpha  occ. eigenvalues --   -0.44644  -0.43734  -0.43435  -0.43364  -0.43144
 Alpha  occ. eigenvalues --   -0.42975  -0.42019  -0.41966  -0.41862  -0.41749
 Alpha  occ. eigenvalues --   -0.41722  -0.41690  -0.41280  -0.41217  -0.41171
 Alpha  occ. eigenvalues --   -0.41108  -0.40977  -0.40869  -0.40792  -0.40596
 Alpha  occ. eigenvalues --   -0.40415  -0.40352  -0.40259  -0.40147  -0.39989
 Alpha  occ. eigenvalues --   -0.39918  -0.39297  -0.39026  -0.38945  -0.38777
 Alpha  occ. eigenvalues --   -0.38674  -0.35261  -0.34751  -0.34140  -0.33537
 Alpha  occ. eigenvalues --   -0.32655  -0.31732  -0.31350  -0.31130  -0.31063
 Alpha  occ. eigenvalues --   -0.30834  -0.30268  -0.30199  -0.30117  -0.30046
 Alpha  occ. eigenvalues --   -0.29950  -0.28328  -0.27837  -0.26912  -0.25955
 Alpha  occ. eigenvalues --   -0.25367
 Alpha virt. eigenvalues --    0.00362   0.01162   0.02255   0.03565   0.05500
 Alpha virt. eigenvalues --    0.06334   0.07229   0.07362   0.07514   0.07669
 Alpha virt. eigenvalues --    0.07729   0.08176   0.08974   0.09844   0.10182

  Beta  occ. eigenvalues --  -88.23661 -88.23587 -88.23556 -88.23449 -88.23147
  Beta  occ. eigenvalues --  -24.42184 -24.42158 -24.42093 -24.41899 -24.41603
  Beta  occ. eigenvalues --  -18.94435 -18.94293 -18.94190 -18.94162 -18.94076
  Beta  occ. eigenvalues --  -18.93619 -18.93540 -18.93517 -18.93415 -18.93161
  Beta  occ. eigenvalues --  -10.12356 -10.12320 -10.12279 -10.12263 -10.11975
  Beta  occ. eigenvalues --  -10.11045 -10.11013 -10.11001 -10.10898 -10.10752
  Beta  occ. eigenvalues --  -10.09932 -10.09769 -10.09707 -10.09692 -10.09677
  Beta  occ. eigenvalues --  -10.09648 -10.09596 -10.09565 -10.09561 -10.09517
  Beta  occ. eigenvalues --  -10.09500 -10.09403 -10.09381 -10.09226 -10.09156
  Beta  occ. eigenvalues --  -10.07609 -10.07551 -10.07543 -10.07404 -10.06970
  Beta  occ. eigenvalues --  -10.06949 -10.06902 -10.06676 -10.06397 -10.06373
  Beta  occ. eigenvalues --  -10.06353 -10.06322 -10.06185 -10.05860 -10.05813
  Beta  occ. eigenvalues --  -10.05753 -10.05734 -10.05625 -10.05536 -10.05443
  Beta  occ. eigenvalues --  -10.04474 -10.04405 -10.04401 -10.04390 -10.04319
  Beta  occ. eigenvalues --  -10.04289 -10.04254 -10.04208 -10.04200 -10.04191
  Beta  occ. eigenvalues --  -10.04149 -10.04116 -10.04104 -10.04058 -10.03882
  Beta  occ. eigenvalues --   -7.84112  -7.84036  -7.83992  -7.83899  -7.83592
  Beta  occ. eigenvalues --   -5.86041  -5.85966  -5.85923  -5.85828  -5.85562
  Beta  occ. eigenvalues --   -5.85517  -5.85486  -5.85443  -5.85349  -5.85139
  Beta  occ. eigenvalues --   -5.85063  -5.85033  -5.85017  -5.84925  -5.84635
  Beta  occ. eigenvalues --   -1.26177  -1.26150  -1.26085  -1.25977  -1.25678
  Beta  occ. eigenvalues --   -1.13368  -1.13355  -1.13273  -1.13160  -1.13084
  Beta  occ. eigenvalues --   -1.12431  -1.12402  -1.12354  -1.12230  -1.12030
  Beta  occ. eigenvalues --   -0.96428  -0.96309  -0.96120  -0.95967  -0.95113
  Beta  occ. eigenvalues --   -0.93970  -0.93620  -0.93195  -0.92782  -0.92520
  Beta  occ. eigenvalues --   -0.87962  -0.87305  -0.86455  -0.85516  -0.84830
  Beta  occ. eigenvalues --   -0.83066  -0.82857  -0.82845  -0.82706  -0.82697
  Beta  occ. eigenvalues --   -0.82480  -0.82109  -0.81816  -0.81690  -0.81380
  Beta  occ. eigenvalues --   -0.80899  -0.80567  -0.80112  -0.79832  -0.79506
  Beta  occ. eigenvalues --   -0.78208  -0.78018  -0.77808  -0.77669  -0.77532
  Beta  occ. eigenvalues --   -0.76547  -0.76278  -0.75817  -0.74996  -0.73841
  Beta  occ. eigenvalues --   -0.72397  -0.71082  -0.69813  -0.68870  -0.68514
  Beta  occ. eigenvalues --   -0.68269  -0.68199  -0.68127  -0.67958  -0.67925
  Beta  occ. eigenvalues --   -0.64615  -0.64590  -0.64534  -0.64511  -0.64430
  Beta  occ. eigenvalues --   -0.63743  -0.63438  -0.63229  -0.63103  -0.62602
  Beta  occ. eigenvalues --   -0.62458  -0.62076  -0.61730  -0.61319  -0.60879
  Beta  occ. eigenvalues --   -0.60633  -0.59617  -0.59315  -0.59220  -0.58903
  Beta  occ. eigenvalues --   -0.58836  -0.58578  -0.58501  -0.58274  -0.58198
  Beta  occ. eigenvalues --   -0.56791  -0.56639  -0.56530  -0.56382  -0.56303
  Beta  occ. eigenvalues --   -0.55442  -0.55404  -0.55326  -0.55245  -0.55156
  Beta  occ. eigenvalues --   -0.55063  -0.54888  -0.54770  -0.54667  -0.54571
  Beta  occ. eigenvalues --   -0.54523  -0.54444  -0.54391  -0.54313  -0.54212
  Beta  occ. eigenvalues --   -0.53423  -0.53316  -0.53264  -0.53236  -0.53134
  Beta  occ. eigenvalues --   -0.52877  -0.52867  -0.52512  -0.52355  -0.52242
  Beta  occ. eigenvalues --   -0.51549  -0.51301  -0.51147  -0.51120  -0.51060
  Beta  occ. eigenvalues --   -0.50800  -0.50497  -0.50102  -0.49901  -0.49381
  Beta  occ. eigenvalues --   -0.49240  -0.48186  -0.48086  -0.48012  -0.47870
  Beta  occ. eigenvalues --   -0.47852  -0.47763  -0.47659  -0.47524  -0.47376
  Beta  occ. eigenvalues --   -0.47199  -0.47146  -0.47039  -0.46930  -0.46858
  Beta  occ. eigenvalues --   -0.46617  -0.46294  -0.46187  -0.45940  -0.45778
  Beta  occ. eigenvalues --   -0.45354  -0.45282  -0.45009  -0.44881  -0.44727
  Beta  occ. eigenvalues --   -0.44644  -0.43734  -0.43435  -0.43364  -0.43144
  Beta  occ. eigenvalues --   -0.42975  -0.42019  -0.41966  -0.41862  -0.41749
  Beta  occ. eigenvalues --   -0.41722  -0.41690  -0.41280  -0.41217  -0.41171
  Beta  occ. eigenvalues --   -0.41108  -0.40977  -0.40869  -0.40792  -0.40596
  Beta  occ. eigenvalues --   -0.40415  -0.40352  -0.40259  -0.40147  -0.39989
  Beta  occ. eigenvalues --   -0.39918  -0.39297  -0.39026  -0.38945  -0.38777
  Beta  occ. eigenvalues --   -0.38674  -0.35261  -0.34751  -0.34140  -0.33537
  Beta  occ. eigenvalues --   -0.32655  -0.31732  -0.31350  -0.31130  -0.31063
  Beta  occ. eigenvalues --   -0.30834  -0.30268  -0.30199  -0.30117  -0.30046
  Beta  occ. eigenvalues --   -0.29950  -0.28328  -0.27837  -0.26912  -0.25955
  Beta  occ. eigenvalues --   -0.25367
  Beta virt. eigenvalues --    0.00362   0.01162   0.02255   0.03565   0.05500
  Beta virt. eigenvalues --    0.06334   0.07229   0.07362   0.07514   0.07669
  Beta virt. eigenvalues --    0.07729   0.08176   0.08974   0.09844   0.10182

 Mulliken charges and spin densities:
               1          2
     1  C    0.033903  -0.000000
     2  C   -0.000623   0.000000
     3  C    0.114667   0.000000
     4  F   -0.121835  -0.000000
     5  C   -0.057874  -0.000000
     6  C    0.123036  -0.000000
     7  O   -0.224607  -0.000000
     8  C    0.058772   0.000000
     9  C   -0.043956  -0.000000
    10  C   -0.188438   0.000000
    11  C    0.190564   0.000000
    12  O   -0.236206   0.000000
    13  C    0.057175   0.000000
    14  C   -0.011660   0.000000
    15  C   -0.155574  -0.000000
    16  S    0.177627   0.000000
    17  C    0.074499   0.000000
    18  C   -0.020866   0.000000
    19  C    0.124504   0.000000
    20  F   -0.118308   0.000000
    21  C   -0.040916  -0.000000
    22  C    0.122468   0.000000
    23  O   -0.234311   0.000000
    24  C    0.059509   0.000000
    25  C   -0.049972  -0.000000
    26  C   -0.186491   0.000000
    27  C    0.178488  -0.000000
    28  O   -0.236660   0.000000
    29  C    0.058501   0.000000
    30  C   -0.009077  -0.000000
    31  C   -0.154857   0.000000
    32  S    0.176317   0.000000
    33  C    0.073148  -0.000000
    34  C   -0.021164   0.000000
    35  C    0.123506  -0.000000
    36  F   -0.121116   0.000000
    37  C   -0.047681  -0.000000
    38  C    0.129137  -0.000000
    39  O   -0.226107   0.000000
    40  C    0.059909   0.000000
    41  C   -0.050849   0.000000
    42  C   -0.191765   0.000000
    43  C    0.188781   0.000000
    44  O   -0.235628  -0.000000
    45  C    0.057084  -0.000000
    46  C   -0.010772  -0.000000
    47  C   -0.155410   0.000000
    48  S    0.178392  -0.000000
    49  C    0.073630   0.000000
    50  C   -0.020961  -0.000000
    51  C    0.123513  -0.000000
    52  F   -0.121324   0.000000
    53  C   -0.047541   0.000000
    54  C    0.129117  -0.000000
    55  O   -0.225968   0.000000
    56  C    0.059670  -0.000000
    57  C   -0.052163   0.000000
    58  C   -0.191949  -0.000000
    59  C    0.188757  -0.000000
    60  O   -0.235610  -0.000000
    61  C    0.057147   0.000000
    62  C   -0.010980   0.000000
    63  C   -0.154682  -0.000000
    64  S    0.176914   0.000000
    65  C    0.073637   0.000000
    66  C   -0.021388  -0.000000
    67  C    0.126113   0.000000
    68  F   -0.119006   0.000000
    69  C   -0.033098  -0.000000
    70  C    0.122630  -0.000000
    71  O   -0.233745  -0.000000
    72  C    0.060025   0.000000
    73  C   -0.051403   0.000000
    74  C   -0.198467   0.000000
    75  C    0.161786  -0.000000
    76  O   -0.236323  -0.000000
    77  C    0.057090   0.000000
    78  C    0.007326  -0.000000
    79  C   -0.127144   0.000000
    80  S    0.177878  -0.000000
    81  H   -0.006461  -0.000000
    82  H   -0.004548   0.000000
    83  H    0.044941  -0.000000
    84  H    0.045086   0.000000
    85  H    0.052471  -0.000000
    86  H   -0.011260  -0.000000
    87  H    0.040412  -0.000000
    88  H    0.048731   0.000000
    89  H    0.043916   0.000000
    90  H   -0.006816   0.000000
    91  H   -0.015478  -0.000000
    92  H    0.055082  -0.000000
    93  H    0.047897  -0.000000
    94  H    0.050743   0.000000
    95  H   -0.008805  -0.000000
    96  H    0.040913   0.000000
    97  H    0.050723  -0.000000
    98  H    0.044221  -0.000000
    99  H   -0.007191  -0.000000
   100  H   -0.014159   0.000000
   101  H    0.048824  -0.000000
   102  H    0.047191  -0.000000
   103  H    0.051306  -0.000000
   104  H   -0.009573   0.000000
   105  H    0.040611   0.000000
   106  H    0.049181   0.000000
   107  H    0.043861  -0.000000
   108  H   -0.007082   0.000000
   109  H   -0.014985   0.000000
   110  H    0.049113   0.000000
   111  H    0.047640  -0.000000
   112  H    0.051182   0.000000
   113  H   -0.008933   0.000000
   114  H    0.040525  -0.000000
   115  H    0.049253  -0.000000
   116  H    0.043594  -0.000000
   117  H   -0.007047   0.000000
   118  H   -0.015780  -0.000000
   119  H    0.049892   0.000000
   120  H    0.048100   0.000000
   121  H    0.053512   0.000000
   122  H   -0.009599  -0.000000
   123  H    0.040134  -0.000000
   124  H    0.049858  -0.000000
   125  H    0.042061  -0.000000
   126  H   -0.006282   0.000000
   127  H    0.022276   0.000000
 Sum of Mulliken charges =  -0.00000   0.00000

 Dipole moment (field-independent basis, Debye):
    X=             -3.7255    Y=              0.5998    Z=              2.9270  Tot=              4.7756
 Quadrupole moment (field-independent basis, Debye-Ang):
   XX=           -382.2161   YY=           -423.0565   ZZ=           -472.8571
   XY=             -6.2292   XZ=            -12.9237   YZ=              3.4221

 Normal termination of Gaussian 16 at Sat Jul 25 00:07:23 2020.
