 Gaussian 16, Revision A.03,
 Gaussian 16:  EM64L-G16RevA.03 25-Dec-2016

 ---------------------------------------------------------------
 #P uLC-wPBE/cc-pVDZ iop(3/107=0178500000, 3/108=0178500000) opt
 ---------------------------------------------------------------

 -----------------
 H44 C63 S7 N14 O7
 -----------------
 Symbolic Z-matrix:
 Charge =  0 Multiplicity = 1

 SCF Done:  E(ULC-wPBE) =  -6503.19183538     A.U. after   16 cycles
 SCF Done:  E(ULC-wPBE) =  -6503.30261122     A.U. after   14 cycles
 SCF Done:  E(ULC-wPBE) =  -6503.42050000     A.U. after   14 cycles
 SCF Done:  E(ULC-wPBE) =  -6503.45927932     A.U. after   15 cycles
 SCF Done:  E(ULC-wPBE) =  -6503.47049102     A.U. after   15 cycles
 SCF Done:  E(ULC-wPBE) =  -6503.47688714     A.U. after   15 cycles
 SCF Done:  E(ULC-wPBE) =  -6503.47921779     A.U. after   15 cycles
 SCF Done:  E(ULC-wPBE) =  -6503.47991822     A.U. after   13 cycles
 SCF Done:  E(ULC-wPBE) =  -6503.48022376     A.U. after   13 cycles
 SCF Done:  E(ULC-wPBE) =  -6503.48030684     A.U. after   12 cycles
 SCF Done:  E(ULC-wPBE) =  -6503.48036579     A.U. after   11 cycles
 SCF Done:  E(ULC-wPBE) =  -6503.48037922     A.U. after   11 cycles
 SCF Done:  E(ULC-wPBE) =  -6503.48038714     A.U. after   11 cycles
 SCF Done:  E(ULC-wPBE) =  -6503.48038913     A.U. after   10 cycles
 SCF Done:  E(ULC-wPBE) =  -6503.48038983     A.U. after    9 cycles
 SCF Done:  E(ULC-wPBE) =  -6503.48039013     A.U. after    8 cycles
 SCF Done:  E(ULC-wPBE) =  -6503.48039038     A.U. after    7 cycles
 SCF Done:  E(ULC-wPBE) =  -6503.48039035     A.U. after    6 cycles
 SCF Done:  E(ULC-wPBE) =  -6503.48039037     A.U. after    6 cycles
 SCF Done:  E(ULC-wPBE) =  -6503.48039042     A.U. after    5 cycles
 Optimization completed on the basis of negligible forces.
    -- Stationary point found.

                         Standard orientation:
 ---------------------------------------------------------------------
 Center     Atomic      Atomic             Coordinates (Angstroms)
 Number     Number       Type             X           Y           Z
 ---------------------------------------------------------------------
      1          6           0      -27.083158   -0.535355    0.056605
      2          6           0      -26.622590   -1.721903   -0.521772
      3          7           0      -25.324248   -1.988105   -0.718060
      4          6           0      -24.462855   -1.026735   -0.319298
      5          7           0      -24.793550    0.159476    0.251213
      6          6           0      -26.098665    0.385786    0.430654
      7          6           0      -23.030529   -1.248954   -0.501521
      8          6           0      -22.329587   -2.329746   -1.046492
      9          8           0      -22.977612   -3.414592   -1.530648
     10          6           0      -22.167338   -4.456251   -2.064593
     11          6           0      -20.913794   -2.134231   -1.030388
     12          6           0      -20.545972   -0.917747   -0.478774
     13         16           0      -21.931426   -0.003512    0.035706
     14          6           0      -19.186359   -0.394987   -0.307757
     15          6           0      -18.072799   -1.240400   -0.129756
     16          7           0      -16.826791   -0.789799    0.008753
     17          6           0      -16.662157    0.557422   -0.011971
     18          7           0      -17.647917    1.469159   -0.160684
     19          6           0      -18.881188    0.979998   -0.311258
     20          6           0      -15.288506    1.021680    0.142887
     21          6           0      -14.753527    2.314581    0.168359
     22          8           0      -15.546936    3.403300    0.048327
     23          6           0      -14.901539    4.671991    0.087407
     24          6           0      -13.334766    2.321683    0.338754
     25          6           0      -12.799654    1.047777    0.441711
     26         16           0      -14.029037   -0.174665    0.320677
     27          6           0      -11.389543    0.688344    0.623299
     28          6           0      -10.339755    1.498240    0.145208
     29          7           0       -9.052069    1.202252    0.314795
     30          6           0       -8.775530    0.045657    0.969551
     31          7           0       -9.689919   -0.819381    1.460516
     32          6           0      -10.969729   -0.481225    1.286401
     33          6           0       -7.358674   -0.256424    1.133753
     34          6           0       -6.715450   -1.335137    1.751329
     35          8           0       -7.420955   -2.327866    2.339259
     36          6           0       -6.668961   -3.376276    2.941987
     37          6           0       -5.291253   -1.239349    1.686125
     38          6           0       -4.858987   -0.100558    1.025729
     39         16           0       -6.194333    0.861924    0.468175
     40          6           0       -3.473322    0.311292    0.779074
     41          6           0       -3.077631    1.657523    0.657127
     42          7           0       -1.819777    2.046490    0.435729
     43          6           0       -0.901330    1.059939    0.342257
     44          7           0       -1.155642   -0.269853    0.442000
     45          6           0       -2.423969   -0.620632    0.648521
     46          6           0        0.494363    1.414100    0.114108
     47          6           0        1.112383    2.660675   -0.037151
     48          8           0        0.396592    3.807248    0.007560
     49          6           0        1.122746    5.021026   -0.157675
     50          6           0        2.522460    2.556305   -0.243242
     51          6           0        2.969121    1.244672   -0.248329
     52         16           0        1.666326    0.123741    0.009545
     53          6           0        4.346209    0.775919   -0.433824
     54          6           0        5.461402    1.552521   -0.059873
     55          7           0        6.720907    1.156611   -0.236549
     56          6           0        6.900480   -0.069713   -0.790628
     57          7           0        5.916218   -0.911500   -1.175778
     58          6           0        4.667464   -0.473712   -0.998709
     59          6           0        8.288467   -0.479615   -0.965632
     60          6           0        8.839750   -1.651093   -1.497283
     61          8           0        8.052334   -2.644434   -1.968517
     62          6           0        8.714464   -3.792235   -2.490255
     63          6           0       10.268538   -1.644943   -1.482381
     64          6           0       10.795309   -0.481641   -0.944701
     65         16           0        9.544337    0.614806   -0.441517
     66          6           0       12.212165   -0.141859   -0.778597
     67          6           0       13.204454   -1.125371   -0.592244
     68          7           0       14.498971   -0.841997   -0.457456
     69          6           0       14.840489    0.471587   -0.490742
     70          7           0       13.983335    1.504132   -0.649155
     71          6           0       12.696374    1.180666   -0.795463
     72          6           0       16.262888    0.751835   -0.338845
     73          6           0       16.963587    1.963255   -0.323737
     74          8           0       16.320442    3.145911   -0.454306
     75          6           0       17.127213    4.318841   -0.423560
     76          6           0       18.370787    1.785229   -0.150861
     77          6           0       18.733743    0.453022   -0.036214
     78         16           0       17.354377   -0.598233   -0.148834
     79          6           0       20.084525   -0.086951    0.150392
     80          6           0       21.231704    0.568320   -0.337117
     81          7           0       22.476118    0.115563   -0.167961
     82          6           0       22.597630   -1.052697    0.501140
     83          7           0       21.571409   -1.785333    1.003644
     84          6           0       20.345530   -1.294277    0.829091
     85          6           0       23.929346   -1.605846    0.718637
     86          6           0       25.191066   -1.131498    0.343075
     87          8           0       25.331182    0.028549   -0.340877
     88          6           0       26.659746    0.412934   -0.676873
     89          6           0       26.253133   -1.998171    0.761380
     90          6           0       25.782596   -3.100711    1.439087
     91         16           0       24.068304   -3.117522    1.585307
     92          1           0      -28.151282   -0.337986    0.208195
     93          1           0      -27.328411   -2.504402   -0.846647
     94          1           0      -26.365255    1.349500    0.894917
     95          1           0      -21.481407   -4.876460   -1.298853
     96          1           0      -21.573482   -4.108863   -2.936414
     97          1           0      -22.867543   -5.242644   -2.394059
     98          1           0      -20.187566   -2.843235   -1.439945
     99          1           0      -18.203691   -2.334068   -0.082883
    100          1           0      -19.683090    1.724142   -0.455021
    101          1           0      -15.702931    5.420310   -0.034599
    102          1           0      -14.168184    4.784672   -0.738881
    103          1           0      -14.389047    4.841752    1.057852
    104          1           0      -12.726812    3.228170    0.419056
    105          1           0      -10.557878    2.422953   -0.414074
    106          1           0      -11.715928   -1.176215    1.707925
    107          1           0       -6.034933   -3.905215    2.199411
    108          1           0       -6.029323   -2.999733    3.767989
    109          1           0       -7.411998   -4.081275    3.351786
    110          1           0       -4.602499   -1.960705    2.136692
    111          1           0       -3.823739    2.464458    0.755657
    112          1           0       -2.628283   -1.702820    0.699310
    113          1           0        1.887181    5.152932    0.636969
    114          1           0        1.614928    5.072368   -1.151813
    115          1           0        0.376591    5.829997   -0.080830
    116          1           0        3.185941    3.409073   -0.417342
    117          1           0        5.322208    2.535913    0.418721
    118          1           0        3.864471   -1.151681   -1.335021
    119          1           0        7.914115   -4.480919   -2.809970
    120          1           0        9.338731   -4.291151   -1.719202
    121          1           0        9.347830   -3.537612   -3.366151
    122          1           0       10.893832   -2.448916   -1.882831
    123          1           0       12.930456   -2.191738   -0.534955
    124          1           0       11.999698    2.022808   -0.947170
    125          1           0       16.431439    5.165197   -0.552815
    126          1           0       17.869872    4.327533   -1.249172
    127          1           0       17.656724    4.427122    0.546540
    128          1           0       19.093068    2.604096   -0.077061
    129          1           0       21.132619    1.505642   -0.909837
    130          1           0       19.517215   -1.882386    1.259356
    131          1           0       27.151466   -0.337295   -1.331745
    132          1           0       27.283110    0.571794    0.228533
    133          1           0       26.567645    1.366341   -1.224647
    134          1           0       27.315933   -1.818547    0.572438
    135          1           0       26.375685   -3.915924    1.865409
 ---------------------------------------------------------------------

 Alpha virt. eigenvalues --    0.08326   0.08415   0.08513   0.08542   0.08661
 Alpha virt. eigenvalues --    0.08774   0.09055   0.09115   0.11234   0.11241
 Alpha virt. eigenvalues --    0.11275   0.11288   0.11315   0.11337   0.11545

  Beta  occ. eigenvalues --  -88.20264 -88.20257 -88.20242 -88.20214 -88.20176
  Beta  occ. eigenvalues --  -88.20078 -88.19826 -18.90653 -18.90633 -18.90628
  Beta  occ. eigenvalues --  -18.90599 -18.90587 -18.90460 -18.90353 -14.10573
  Beta  occ. eigenvalues --  -14.10565 -14.10556 -14.10518 -14.10488 -14.10275
  Beta  occ. eigenvalues --  -14.10154 -14.10134 -14.10122 -14.10113 -14.10084
  Beta  occ. eigenvalues --  -14.10044 -14.09948 -14.09757 -10.07583 -10.07574
  Beta  occ. eigenvalues --  -10.07563 -10.07533 -10.07491 -10.07361 -10.07356
  Beta  occ. eigenvalues --  -10.07008 -10.06993 -10.06988 -10.06943 -10.06937
  Beta  occ. eigenvalues --  -10.06790 -10.06564 -10.05881 -10.05857 -10.05848
  Beta  occ. eigenvalues --  -10.05842 -10.05825 -10.05761 -10.05705 -10.05225
  Beta  occ. eigenvalues --  -10.05220 -10.05202 -10.05181 -10.05120 -10.04987
  Beta  occ. eigenvalues --  -10.04979 -10.04959 -10.04948 -10.04947 -10.04893
  Beta  occ. eigenvalues --  -10.04877 -10.04839 -10.04690 -10.04634 -10.04624
  Beta  occ. eigenvalues --  -10.04612 -10.04578 -10.04542 -10.04425 -10.03213
  Beta  occ. eigenvalues --  -10.02970 -10.02963 -10.02945 -10.02924 -10.02864
  Beta  occ. eigenvalues --  -10.02774 -10.02567 -10.02558 -10.02546 -10.02511
  Beta  occ. eigenvalues --  -10.02483 -10.02330 -10.02076 -10.01314 -10.01240
  Beta  occ. eigenvalues --  -10.01232 -10.01213 -10.01195 -10.01138 -10.01071
  Beta  occ. eigenvalues --  -10.00836  -7.80539  -7.80532  -7.80517  -7.80489
  Beta  occ. eigenvalues --   -7.80451  -7.80349  -7.80104  -5.82587  -5.82580
  Beta  occ. eigenvalues --   -5.82565  -5.82537  -5.82499  -5.82397  -5.82142
  Beta  occ. eigenvalues --   -5.82126  -5.82118  -5.82104  -5.82075  -5.82038
  Beta  occ. eigenvalues --   -5.81934  -5.81707  -5.81700  -5.81685  -5.81678
  Beta  occ. eigenvalues --   -5.81657  -5.81618  -5.81520  -5.81294  -1.09099
  Beta  occ. eigenvalues --   -1.09080  -1.09074  -1.09043  -1.09034  -1.08902
  Beta  occ. eigenvalues --   -1.08765  -1.00776  -1.00752  -1.00736  -1.00708
  Beta  occ. eigenvalues --   -1.00670  -1.00525  -1.00299  -0.92144  -0.92023
  Beta  occ. eigenvalues --   -0.91879  -0.91723  -0.91589  -0.91492  -0.91271
  Beta  occ. eigenvalues --   -0.91250  -0.91236  -0.91225  -0.91165  -0.91161
  Beta  occ. eigenvalues --   -0.90846  -0.90712  -0.85810  -0.85476  -0.85010
  Beta  occ. eigenvalues --   -0.84442  -0.83821  -0.83245  -0.82362  -0.80075
  Beta  occ. eigenvalues --   -0.79561  -0.79055  -0.78787  -0.78724  -0.78678
  Beta  occ. eigenvalues --   -0.78349  -0.78141  -0.78034  -0.77820  -0.77355
  Beta  occ. eigenvalues --   -0.76792  -0.76344  -0.76159  -0.73956  -0.73846
  Beta  occ. eigenvalues --   -0.73689  -0.73449  -0.73124  -0.72695  -0.71910
  Beta  occ. eigenvalues --   -0.70971  -0.70155  -0.69975  -0.69852  -0.69716
  Beta  occ. eigenvalues --   -0.69560  -0.69422  -0.69235  -0.69051  -0.69038
  Beta  occ. eigenvalues --   -0.68224  -0.67405  -0.66726  -0.66317  -0.62395
  Beta  occ. eigenvalues --   -0.62091  -0.61833  -0.61680  -0.61395  -0.61304
  Beta  occ. eigenvalues --   -0.61181  -0.60992  -0.60946  -0.60648  -0.60366
  Beta  occ. eigenvalues --   -0.60184  -0.60036  -0.59985  -0.59286  -0.59198
  Beta  occ. eigenvalues --   -0.59088  -0.58933  -0.58748  -0.58591  -0.58526
  Beta  occ. eigenvalues --   -0.56314  -0.56310  -0.56270  -0.56254  -0.56226
  Beta  occ. eigenvalues --   -0.56012  -0.55300  -0.53845  -0.53427  -0.53075
  Beta  occ. eigenvalues --   -0.52841  -0.52678  -0.52582  -0.52555  -0.51977
  Beta  occ. eigenvalues --   -0.51939  -0.51922  -0.51909  -0.51894  -0.51796
  Beta  occ. eigenvalues --   -0.51688  -0.51587  -0.51489  -0.51334  -0.51031
  Beta  occ. eigenvalues --   -0.50595  -0.50101  -0.49618  -0.49341  -0.49275
  Beta  occ. eigenvalues --   -0.49257  -0.49220  -0.49110  -0.49062  -0.48964
  Beta  occ. eigenvalues --   -0.48662  -0.48524  -0.48473  -0.48355  -0.48329
  Beta  occ. eigenvalues --   -0.48275  -0.48113  -0.48030  -0.46717  -0.46657
  Beta  occ. eigenvalues --   -0.46587  -0.46469  -0.46346  -0.46152  -0.46112
  Beta  occ. eigenvalues --   -0.45649  -0.45465  -0.45354  -0.45126  -0.45083
  Beta  occ. eigenvalues --   -0.44958  -0.44828  -0.44811  -0.44684  -0.44662
  Beta  occ. eigenvalues --   -0.44508  -0.44451  -0.44355  -0.44194  -0.44139
  Beta  occ. eigenvalues --   -0.44092  -0.44030  -0.43961  -0.43869  -0.43779
  Beta  occ. eigenvalues --   -0.43387  -0.40400  -0.40299  -0.40254  -0.40231
  Beta  occ. eigenvalues --   -0.40179  -0.40099  -0.39886  -0.39653  -0.39533
  Beta  occ. eigenvalues --   -0.39356  -0.39263  -0.39166  -0.39116  -0.38988
  Beta  occ. eigenvalues --   -0.38922  -0.38818  -0.38780  -0.38688  -0.38594
  Beta  occ. eigenvalues --   -0.38495  -0.37980  -0.37620  -0.37539  -0.37488
  Beta  occ. eigenvalues --   -0.37437  -0.37421  -0.37193  -0.37136  -0.36796
  Beta  occ. eigenvalues --   -0.36647  -0.36348  -0.35814  -0.35106  -0.35050
  Beta  occ. eigenvalues --   -0.34937  -0.34813  -0.34704  -0.34635  -0.34544
  Beta  occ. eigenvalues --   -0.34363  -0.34314  -0.33687  -0.31219  -0.30648
  Beta  occ. eigenvalues --   -0.30175  -0.29880  -0.29754  -0.29693  -0.29505
  Beta  occ. eigenvalues --   -0.29434  -0.29353  -0.29272  -0.29182  -0.29085
  Beta  occ. eigenvalues --   -0.28977  -0.28953  -0.27950  -0.27590  -0.27004
  Beta  occ. eigenvalues --   -0.26209  -0.25283  -0.24474  -0.23943
  Beta virt. eigenvalues --   -0.04224  -0.03531  -0.02574  -0.01431  -0.00247
  Beta virt. eigenvalues --    0.00759   0.00860   0.00902   0.00933   0.00945
  Beta virt. eigenvalues --    0.00984   0.01177   0.01343   0.02098   0.03732

 Mulliken charges and spin densities:
               1          2
     1  C   -0.064459  -0.000000
     2  C    0.111026   0.000000
     3  N   -0.181786  -0.000000
     4  C    0.199822   0.000000
     5  N   -0.211567  -0.000000
     6  C    0.119314   0.000000
     7  C   -0.194537  -0.000000
     8  C    0.149981   0.000000
     9  O   -0.204319   0.000000
    10  C    0.058019   0.000000
    11  C   -0.000870  -0.000000
    12  C   -0.158002   0.000000
    13  S    0.194926  -0.000000
    14  C   -0.056523  -0.000000
    15  C    0.130320   0.000000
    16  N   -0.208007   0.000000
    17  C    0.201445   0.000000
    18  N   -0.176823  -0.000000
    19  C    0.121500  -0.000000
    20  C   -0.195379  -0.000000
    21  C    0.150146   0.000000
    22  O   -0.203645  -0.000000
    23  C    0.057703  -0.000000
    24  C    0.000384   0.000000
    25  C   -0.157344  -0.000000
    26  S    0.195151  -0.000000
    27  C   -0.057298   0.000000
    28  C    0.130595   0.000000
    29  N   -0.207851  -0.000000
    30  C    0.201677  -0.000000
    31  N   -0.176710   0.000000
    32  C    0.121633  -0.000000
    33  C   -0.195553  -0.000000
    34  C    0.150392   0.000000
    35  O   -0.203632  -0.000000
    36  C    0.057625  -0.000000
    37  C    0.000303  -0.000000
    38  C   -0.157190  -0.000000
    39  S    0.195260   0.000000
    40  C   -0.057119   0.000000
    41  C    0.121644   0.000000
    42  N   -0.176785  -0.000000
    43  C    0.201856   0.000000
    44  N   -0.207787   0.000000
    45  C    0.130688  -0.000000
    46  C   -0.195612   0.000000
    47  C    0.150380  -0.000000
    48  O   -0.203666   0.000000
    49  C    0.057667  -0.000000
    50  C    0.000225   0.000000
    51  C   -0.156888  -0.000000
    52  S    0.195362  -0.000000
    53  C   -0.057283  -0.000000
    54  C    0.130510  -0.000000
    55  N   -0.207770   0.000000
    56  C    0.201777   0.000000
    57  N   -0.176673  -0.000000
    58  C    0.121541   0.000000
    59  C   -0.195724  -0.000000
    60  C    0.150447  -0.000000
    61  O   -0.203647  -0.000000
    62  C    0.057599  -0.000000
    63  C    0.000310   0.000000
    64  C   -0.156972   0.000000
    65  S    0.195126   0.000000
    66  C   -0.057338  -0.000000
    67  C    0.130605   0.000000
    68  N   -0.207665  -0.000000
    69  C    0.201774   0.000000
    70  N   -0.176898   0.000000
    71  C    0.121513  -0.000000
    72  C   -0.195851  -0.000000
    73  C    0.150013   0.000000
    74  O   -0.203778  -0.000000
    75  C    0.057826   0.000000
    76  C    0.000858  -0.000000
    77  C   -0.156444  -0.000000
    78  S    0.194793   0.000000
    79  C   -0.058185   0.000000
    80  C    0.118389   0.000000
    81  N   -0.178137   0.000000
    82  C    0.210506  -0.000000
    83  N   -0.206768   0.000000
    84  C    0.130512  -0.000000
    85  C   -0.208700   0.000000
    86  C    0.136294  -0.000000
    87  O   -0.204462  -0.000000
    88  C    0.056316  -0.000000
    89  C    0.022582  -0.000000
    90  C   -0.118763   0.000000
    91  S    0.198655   0.000000
    92  H   -0.007590  -0.000000
    93  H    0.004032  -0.000000
    94  H    0.007818   0.000000
    95  H    0.043323   0.000000
    96  H    0.045329  -0.000000
    97  H    0.053574  -0.000000
    98  H   -0.013849  -0.000000
    99  H    0.000426  -0.000000
   100  H    0.007173   0.000000
   101  H    0.054908   0.000000
   102  H    0.043713   0.000000
   103  H    0.045823   0.000000
   104  H   -0.013335   0.000000
   105  H    0.000650   0.000000
   106  H    0.007352  -0.000000
   107  H    0.044032   0.000000
   108  H    0.045912   0.000000
   109  H    0.054997   0.000000
   110  H   -0.013036  -0.000000
   111  H    0.007017  -0.000000
   112  H    0.000756   0.000000
   113  H    0.043921   0.000000
   114  H    0.045987   0.000000
   115  H    0.054852   0.000000
   116  H   -0.013171   0.000000
   117  H    0.000605  -0.000000
   118  H    0.007373  -0.000000
   119  H    0.054968   0.000000
   120  H    0.044215   0.000000
   121  H    0.045920  -0.000000
   122  H   -0.012974  -0.000000
   123  H    0.000768   0.000000
   124  H    0.006757  -0.000000
   125  H    0.054504  -0.000000
   126  H    0.043634  -0.000000
   127  H    0.045914   0.000000
   128  H   -0.013360   0.000000
   129  H   -0.003071  -0.000000
   130  H    0.010090  -0.000000
   131  H    0.043845  -0.000000
   132  H    0.043511  -0.000000
   133  H    0.052595   0.000000
   134  H   -0.009757   0.000000
   135  H    0.021266  -0.000000
 Sum of Mulliken charges =  -0.00000   0.00000

 Dipole moment (field-independent basis, Debye):
    X=              2.0219    Y=              1.3184    Z=             -1.2244  Tot=              2.7065
 Quadrupole moment (field-independent basis, Debye-Ang):
   XX=           -358.2498   YY=           -487.1193   ZZ=           -561.4130
   XY=             46.1075   XZ=            -11.3502   YZ=              2.2545

 Normal termination of Gaussian 16 at Sat Jul 25 17:45:09 2020.
