 Gaussian 16, Revision A.03,
 Gaussian 16:  EM64L-G16RevA.03 25-Dec-2016

 ---------------------------------------------------------------
 #P uLC-wPBE/cc-pVDZ iop(3/107=0090500000, 3/108=0090500000) opt
 ---------------------------------------------------------------

 ----------------
 H30 C63 S7 N7 F7
 ----------------
 Symbolic Z-matrix:
 Charge =  0 Multiplicity = 1

 SCF Done:  E(ULC-wPBE) =  -6283.94247721     A.U. after   19 cycles
 SCF Done:  E(ULC-wPBE) =  -6284.03723682     A.U. after   13 cycles
 SCF Done:  E(ULC-wPBE) =  -6284.11994171     A.U. after   15 cycles
 SCF Done:  E(ULC-wPBE) =  -6284.14150757     A.U. after   15 cycles
 SCF Done:  E(ULC-wPBE) =  -6284.15238280     A.U. after   16 cycles
 SCF Done:  E(ULC-wPBE) =  -6284.15832508     A.U. after   16 cycles
 SCF Done:  E(ULC-wPBE) =  -6284.16246465     A.U. after   17 cycles
 SCF Done:  E(ULC-wPBE) =  -6284.16369592     A.U. after   14 cycles
 SCF Done:  E(ULC-wPBE) =  -6284.16416288     A.U. after   13 cycles
 SCF Done:  E(ULC-wPBE) =  -6284.16439777     A.U. after   13 cycles
 SCF Done:  E(ULC-wPBE) =  -6284.16460418     A.U. after   13 cycles
 SCF Done:  E(ULC-wPBE) =  -6284.16460760     A.U. after   10 cycles
 SCF Done:  E(ULC-wPBE) =  -6284.16460955     A.U. after   10 cycles
 SCF Done:  E(ULC-wPBE) =  -6284.16461038     A.U. after   10 cycles
 SCF Done:  E(ULC-wPBE) =  -6284.16461068     A.U. after   10 cycles
 SCF Done:  E(ULC-wPBE) =  -6284.16461077     A.U. after    7 cycles
 SCF Done:  E(ULC-wPBE) =  -6284.16461102     A.U. after    7 cycles
 SCF Done:  E(ULC-wPBE) =  -6284.16461112     A.U. after    7 cycles
 SCF Done:  E(ULC-wPBE) =  -6284.16461113     A.U. after    6 cycles
 SCF Done:  E(ULC-wPBE) =  -6284.16461107     A.U. after    6 cycles
 Optimization completed.
    -- Stationary point found.

                         Standard orientation:
 ---------------------------------------------------------------------
 Center     Atomic      Atomic             Coordinates (Angstroms)
 Number     Number       Type             X           Y           Z
 ---------------------------------------------------------------------
      1          6           0       26.096429   -5.251156   -0.886182
      2          6           0       24.828481   -5.832123   -1.047561
      3          6           0       23.681962   -5.099239   -0.728777
      4          6           0       23.756639   -3.770728   -0.246994
      5          6           0       25.050136   -3.216740   -0.098403
      6          9           0       25.197113   -1.948999    0.335368
      7          6           0       26.205694   -3.938734   -0.410188
      8          6           0       22.546085   -3.005914    0.075055
      9          7           0       22.483300   -1.957826    0.873938
     10          6           0       21.206572   -1.483736    0.966614
     11          6           0       20.224232   -2.144495    0.237311
     12         16           0       20.981464   -3.458097   -0.639273
     13          6           0       18.789520   -1.861828    0.156082
     14          6           0       17.857173   -2.830372   -0.292256
     15          6           0       16.495448   -2.545914   -0.352542
     16          6           0       15.983221   -1.283631    0.033768
     17          6           0       16.929010   -0.337025    0.476335
     18          9           0       16.498104    0.898781    0.852543
     19          6           0       18.294268   -0.594594    0.537678
     20          6           0       14.543134   -1.035174   -0.048099
     21          7           0       13.688260   -1.953672   -0.474059
     22          6           0       12.409181   -1.483634   -0.455859
     23          6           0       12.219401   -0.178169   -0.014683
     24         16           0       13.780292    0.494004    0.408369
     25          6           0       10.971071    0.578981    0.100397
     26          6           0        9.720981   -0.087190    0.131141
     27          6           0        8.533731    0.633555    0.230882
     28          6           0        8.510120    2.047270    0.310813
     29          6           0        9.769328    2.692871    0.286106
     30          9           0        9.842600    4.036753    0.337864
     31          6           0       10.967481    1.987761    0.181060
     32          6           0        7.252593    2.790744    0.410344
     33          7           0        7.124040    4.043937    0.804889
     34          6           0        5.817133    4.435445    0.789802
     35          6           0        4.873448    3.500362    0.377855
     36         16           0        5.711382    2.017696   -0.031064
     37          6           0        3.420251    3.647122    0.273222
     38          6           0        2.826528    4.934144    0.212862
     39          6           0        1.445560    5.083595    0.128406
     40          6           0        0.576086    3.965318    0.089572
     41          6           0        1.189249    2.698557    0.142634
     42          9           0        0.407418    1.584204    0.110205
     43          6           0        2.566697    2.523184    0.234957
     44          6           0       -0.868451    4.180219   -0.004991
     45          7           0       -1.403544    5.391345   -0.051775
     46          6           0       -2.762038    5.328233   -0.140501
     47          6           0       -3.337929    4.062159   -0.165329
     48         16           0       -2.056742    2.871385   -0.071983
     49          6           0       -4.754606    3.700569   -0.248861
     50          6           0       -5.715618    4.638136   -0.707052
     51          6           0       -7.065403    4.306653   -0.776208
     52          6           0       -7.537476    3.023631   -0.403528
     53          6           0       -6.564093    2.107755    0.040648
     54          9           0       -6.954984    0.858451    0.415237
     55          6           0       -5.210083    2.417659    0.125698
     56          6           0       -8.967244    2.726737   -0.501392
     57          7           0       -9.848684    3.619006   -0.928824
     58          6           0      -11.110884    3.105268   -0.928172
     59          6           0      -11.260825    1.790433   -0.499465
     60         16           0       -9.681907    1.168508   -0.065514
     61          6           0      -12.481668    0.987639   -0.401000
     62          6           0      -12.444805   -0.426157   -0.309120
     63          6           0      -13.616575   -1.173713   -0.225539
     64          6           0      -14.892029   -0.558669   -0.233152
     65          6           0      -14.903638    0.847645   -0.325126
     66          9           0      -16.100094    1.498535   -0.327152
     67          6           0      -13.747264    1.616330   -0.401823
     68          6           0      -16.093235   -1.390503   -0.145377
     69          7           0      -16.035794   -2.711396   -0.060196
     70          6           0      -17.283205   -3.256228    0.009542
     71          6           0      -18.361701   -2.378369   -0.019172
     72         16           0      -17.740358   -0.745418   -0.140763
     73          6           0      -19.794808   -2.677387    0.032949
     74          6           0      -20.771937   -1.743828   -0.392752
     75          6           0      -22.129884   -2.049929   -0.344761
     76          6           0      -22.592969   -3.302375    0.124654
     77          6           0      -21.603353   -4.213997    0.542215
     78          9           0      -21.985892   -5.433450    1.013631
     79          6           0      -20.242076   -3.929257    0.511428
     80          6           0      -24.032956   -3.574988    0.153096
     81          7           0      -24.929344   -2.689018   -0.248182
     82          6           0      -26.201754   -3.180583   -0.124606
     83          6           0      -26.311746   -4.460842    0.376733
     84         16           0      -24.738732   -5.099924    0.718228
     85          1           0       27.004908   -5.820015   -1.128831
     86          1           0       24.732680   -6.863295   -1.413760
     87          1           0       22.691651   -5.566533   -0.834361
     88          1           0       27.178700   -3.447564   -0.275857
     89          1           0       21.007807   -0.628737    1.626390
     90          1           0       18.211263   -3.829140   -0.584536
     91          1           0       15.772822   -3.296831   -0.697795
     92          1           0       18.960101    0.212982    0.867310
     93          1           0       11.600880   -2.137814   -0.808097
     94          1           0        9.682857   -1.183986    0.106823
     95          1           0        7.580787    0.086161    0.276453
     96          1           0       11.899874    2.567839    0.143726
     97          1           0        5.566109    5.450196    1.125480
     98          1           0        3.463271    5.828659    0.211192
     99          1           0        0.984616    6.078779    0.078401
    100          1           0        2.958589    1.498603    0.291254
    101          1           0       -3.334181    6.264882   -0.163606
    102          1           0       -5.392042    5.635505   -1.032999
    103          1           0       -7.809840    5.030030   -1.133862
    104          1           0       -4.523201    1.647547    0.502214
    105          1           0      -11.937441    3.735118   -1.282653
    106          1           0      -11.476278   -0.946099   -0.317958
    107          1           0      -13.587976   -2.269052   -0.157085
    108          1           0      -13.853034    2.707827   -0.442410
    109          1           0      -17.380492   -4.348708    0.060451
    110          1           0      -20.455566   -0.765540   -0.781878
    111          1           0      -22.887271   -1.327860   -0.676957
    112          1           0      -19.545013   -4.690633    0.883900
    113          1           0      -27.050880   -2.551254   -0.421625
    114          1           0      -27.215672   -5.051174    0.560560
 ---------------------------------------------------------------------

 Alpha  occ. eigenvalues --   -0.59237  -0.59102  -0.58959  -0.58663  -0.58555
 Alpha  occ. eigenvalues --   -0.58398  -0.58103  -0.57551  -0.57150  -0.57096
 Alpha  occ. eigenvalues --   -0.56878  -0.56828  -0.56481  -0.56124  -0.54699
 Alpha  occ. eigenvalues --   -0.54260  -0.53988  -0.53725  -0.53531  -0.53346
 Alpha  occ. eigenvalues --   -0.52923  -0.51791  -0.51481  -0.51286  -0.51058
 Alpha  occ. eigenvalues --   -0.50860  -0.50730  -0.50399  -0.50181  -0.49864
 Alpha  occ. eigenvalues --   -0.49786  -0.49594  -0.49538  -0.49378  -0.49314
 Alpha  occ. eigenvalues --   -0.48653  -0.48187  -0.47688  -0.47560  -0.47515
 Alpha  occ. eigenvalues --   -0.47424  -0.47308  -0.47158  -0.46979  -0.46803
 Alpha  occ. eigenvalues --   -0.46682  -0.46444  -0.46288  -0.45857  -0.45684
 Alpha  occ. eigenvalues --   -0.45574  -0.45472  -0.45213  -0.45008  -0.44960
 Alpha  occ. eigenvalues --   -0.44777  -0.44060  -0.43903  -0.43808  -0.43728
 Alpha  occ. eigenvalues --   -0.43676  -0.43626  -0.43569  -0.43466  -0.43409
 Alpha  occ. eigenvalues --   -0.43371  -0.43318  -0.43250  -0.43234  -0.43096
 Alpha  occ. eigenvalues --   -0.42575  -0.42510  -0.42171  -0.41942  -0.41629
 Alpha  occ. eigenvalues --   -0.41250  -0.41135  -0.40520  -0.40209  -0.39886
 Alpha  occ. eigenvalues --   -0.39862  -0.39819  -0.39666  -0.39527  -0.39423
 Alpha  occ. eigenvalues --   -0.39201  -0.39091  -0.38989  -0.38795  -0.38566
 Alpha  occ. eigenvalues --   -0.38467  -0.38392  -0.38037  -0.37978  -0.37881
 Alpha  occ. eigenvalues --   -0.37653  -0.37237  -0.37216  -0.37022  -0.36901
 Alpha  occ. eigenvalues --   -0.36440  -0.36312  -0.36254  -0.36183  -0.36131
 Alpha  occ. eigenvalues --   -0.35851  -0.35221  -0.34713  -0.34086  -0.33254
 Alpha  occ. eigenvalues --   -0.32584  -0.31997  -0.31085  -0.30826  -0.30768
 Alpha  occ. eigenvalues --   -0.30728  -0.30673  -0.30505  -0.30262  -0.30038
 Alpha  occ. eigenvalues --   -0.29437  -0.29393  -0.29293  -0.29118  -0.29042
 Alpha  occ. eigenvalues --   -0.28960  -0.28825  -0.28722  -0.28711  -0.28688
 Alpha  occ. eigenvalues --   -0.28645  -0.28594  -0.28437  -0.28312  -0.27971
 Alpha  occ. eigenvalues --   -0.27167  -0.26226  -0.25207  -0.24211  -0.23377
 Alpha  occ. eigenvalues --   -0.22815
 Alpha virt. eigenvalues --   -0.07900  -0.07196  -0.06332  -0.05295  -0.04253
 Alpha virt. eigenvalues --   -0.03296  -0.02463  -0.01045  -0.00927  -0.00700
 Alpha virt. eigenvalues --   -0.00626  -0.00547  -0.00486  -0.00278  -0.00175

  Beta  occ. eigenvalues --  -88.16923 -88.16916 -88.16835 -88.16802 -88.16718
  Beta  occ. eigenvalues --  -88.16628 -88.16272 -24.36060 -24.36000 -24.35932
  Beta  occ. eigenvalues --  -24.35798 -24.35489 -24.34626 -24.34321 -14.06397
  Beta  occ. eigenvalues --  -14.06387 -14.06284 -14.06231 -14.06114 -14.06111
  Beta  occ. eigenvalues --  -14.05581 -10.05273 -10.05229 -10.05153 -10.05050
  Beta  occ. eigenvalues --  -10.05018 -10.04707 -10.04640 -10.02992 -10.02974
  Beta  occ. eigenvalues --  -10.02964 -10.02837 -10.02817 -10.02651 -10.02104
  Beta  occ. eigenvalues --  -10.00397 -10.00270 -10.00155 -10.00146 -10.00037
  Beta  occ. eigenvalues --   -9.99852  -9.99754  -9.99707  -9.99659  -9.99628
  Beta  occ. eigenvalues --   -9.99501  -9.99431  -9.99388  -9.99369  -9.99288
  Beta  occ. eigenvalues --   -9.99263  -9.99218  -9.99176  -9.99121  -9.99098
  Beta  occ. eigenvalues --   -9.99085  -9.99005  -9.98917  -9.98883  -9.98579
  Beta  occ. eigenvalues --   -9.98574  -9.98535  -9.98189  -9.97872  -9.97820
  Beta  occ. eigenvalues --   -9.97776  -9.97744  -9.97647  -9.97619  -9.97613
  Beta  occ. eigenvalues --   -9.97575  -9.97549  -9.97515  -9.97515  -9.97419
  Beta  occ. eigenvalues --   -9.97389  -9.97386  -9.97381  -9.97319  -9.97177
  Beta  occ. eigenvalues --   -9.97142  -9.97079  -9.96982  -9.96919  -7.77174
  Beta  occ. eigenvalues --   -7.77170  -7.77130  -7.77052  -7.77010  -7.76878
  Beta  occ. eigenvalues --   -7.76514  -5.79238  -5.79233  -5.79185  -5.79117
  Beta  occ. eigenvalues --   -5.79064  -5.78942  -5.78816  -5.78812  -5.78782
  Beta  occ. eigenvalues --   -5.78694  -5.78660  -5.78568  -5.78520  -5.78464
  Beta  occ. eigenvalues --   -5.78458  -5.78409  -5.78342  -5.78292  -5.78168
  Beta  occ. eigenvalues --   -5.78144  -5.77831  -1.19121  -1.19061  -1.18995
  Beta  occ. eigenvalues --   -1.18854  -1.18545  -1.18162  -1.17817  -0.94504
  Beta  occ. eigenvalues --   -0.94491  -0.94392  -0.94380  -0.94271  -0.94199
  Beta  occ. eigenvalues --   -0.93577  -0.86336  -0.86227  -0.86079  -0.85926
  Beta  occ. eigenvalues --   -0.85829  -0.85551  -0.85037  -0.81242  -0.81068
  Beta  occ. eigenvalues --   -0.80820  -0.80554  -0.80464  -0.80187  -0.78289
  Beta  occ. eigenvalues --   -0.77995  -0.77808  -0.77612  -0.77311  -0.76987
  Beta  occ. eigenvalues --   -0.76642  -0.76353  -0.74992  -0.74858  -0.74771
  Beta  occ. eigenvalues --   -0.74666  -0.74499  -0.74200  -0.74114  -0.73835
  Beta  occ. eigenvalues --   -0.73296  -0.72550  -0.71762  -0.71024  -0.70254
  Beta  occ. eigenvalues --   -0.69855  -0.66426  -0.65838  -0.65234  -0.64730
  Beta  occ. eigenvalues --   -0.64317  -0.63919  -0.63429  -0.62922  -0.62628
  Beta  occ. eigenvalues --   -0.62575  -0.62247  -0.61947  -0.61836  -0.61744
  Beta  occ. eigenvalues --   -0.59237  -0.59102  -0.58959  -0.58663  -0.58555
  Beta  occ. eigenvalues --   -0.58398  -0.58103  -0.57551  -0.57150  -0.57096
  Beta  occ. eigenvalues --   -0.56878  -0.56828  -0.56481  -0.56124  -0.54699
  Beta  occ. eigenvalues --   -0.54260  -0.53988  -0.53725  -0.53531  -0.53346
  Beta  occ. eigenvalues --   -0.52923  -0.51791  -0.51481  -0.51286  -0.51058
  Beta  occ. eigenvalues --   -0.50860  -0.50730  -0.50399  -0.50181  -0.49864
  Beta  occ. eigenvalues --   -0.49786  -0.49594  -0.49538  -0.49378  -0.49314
  Beta  occ. eigenvalues --   -0.48653  -0.48187  -0.47688  -0.47560  -0.47515
  Beta  occ. eigenvalues --   -0.47424  -0.47308  -0.47158  -0.46979  -0.46803
  Beta  occ. eigenvalues --   -0.46682  -0.46444  -0.46288  -0.45857  -0.45684
  Beta  occ. eigenvalues --   -0.45574  -0.45472  -0.45213  -0.45008  -0.44960
  Beta  occ. eigenvalues --   -0.44777  -0.44060  -0.43903  -0.43808  -0.43728
  Beta  occ. eigenvalues --   -0.43676  -0.43626  -0.43569  -0.43466  -0.43409
  Beta  occ. eigenvalues --   -0.43371  -0.43318  -0.43250  -0.43234  -0.43096
  Beta  occ. eigenvalues --   -0.42575  -0.42510  -0.42171  -0.41942  -0.41629
  Beta  occ. eigenvalues --   -0.41250  -0.41135  -0.40520  -0.40209  -0.39886
  Beta  occ. eigenvalues --   -0.39862  -0.39819  -0.39666  -0.39527  -0.39423
  Beta  occ. eigenvalues --   -0.39201  -0.39091  -0.38989  -0.38795  -0.38566
  Beta  occ. eigenvalues --   -0.38467  -0.38392  -0.38037  -0.37978  -0.37881
  Beta  occ. eigenvalues --   -0.37653  -0.37237  -0.37216  -0.37022  -0.36901
  Beta  occ. eigenvalues --   -0.36440  -0.36312  -0.36254  -0.36183  -0.36131
  Beta  occ. eigenvalues --   -0.35851  -0.35221  -0.34713  -0.34086  -0.33254
  Beta  occ. eigenvalues --   -0.32584  -0.31997  -0.31085  -0.30826  -0.30768
  Beta  occ. eigenvalues --   -0.30728  -0.30673  -0.30505  -0.30262  -0.30038
  Beta  occ. eigenvalues --   -0.29437  -0.29393  -0.29293  -0.29118  -0.29042
  Beta  occ. eigenvalues --   -0.28960  -0.28825  -0.28722  -0.28711  -0.28688
  Beta  occ. eigenvalues --   -0.28645  -0.28594  -0.28437  -0.28312  -0.27971
  Beta  occ. eigenvalues --   -0.27167  -0.26226  -0.25207  -0.24211  -0.23377
  Beta  occ. eigenvalues --   -0.22815
  Beta virt. eigenvalues --   -0.07900  -0.07196  -0.06332  -0.05295  -0.04253
  Beta virt. eigenvalues --   -0.03296  -0.02463  -0.01045  -0.00927  -0.00700
  Beta virt. eigenvalues --   -0.00626  -0.00547  -0.00486  -0.00278  -0.00175

 Mulliken charges and spin densities:
               1          2
     1  C    0.039764  -0.000000
     2  C    0.037472  -0.000000
     3  C   -0.003159   0.000000
     4  C    0.015776   0.000000
     5  C    0.096635  -0.000000
     6  F   -0.098899  -0.000000
     7  C    0.024998   0.000000
     8  C   -0.008905  -0.000000
     9  N   -0.161091  -0.000000
    10  C    0.124013  -0.000000
    11  C   -0.189421   0.000000
    12  S    0.122856   0.000000
    13  C    0.097853  -0.000000
    14  C    0.015608  -0.000000
    15  C    0.050368  -0.000000
    16  C    0.014231   0.000000
    17  C    0.063942  -0.000000
    18  F   -0.122142   0.000000
    19  C    0.008293   0.000000
    20  C    0.007840  -0.000000
    21  N   -0.179877   0.000000
    22  C    0.134287  -0.000000
    23  C   -0.201484   0.000000
    24  S    0.148074  -0.000000
    25  C    0.101656   0.000000
    26  C    0.003555  -0.000000
    27  C    0.003721   0.000000
    28  C    0.029020  -0.000000
    29  C    0.103528  -0.000000
    30  F   -0.095156  -0.000000
    31  C   -0.000780  -0.000000
    32  C   -0.009170   0.000000
    33  N   -0.163881  -0.000000
    34  C    0.124615  -0.000000
    35  C   -0.186342   0.000000
    36  S    0.119122  -0.000000
    37  C    0.096054  -0.000000
    38  C    0.013787  -0.000000
    39  C    0.051192   0.000000
    40  C    0.015717  -0.000000
    41  C    0.060207   0.000000
    42  F   -0.122184   0.000000
    43  C    0.012296   0.000000
    44  C    0.007724   0.000000
    45  N   -0.179398  -0.000000
    46  C    0.134322   0.000000
    47  C   -0.200183  -0.000000
    48  S    0.144949   0.000000
    49  C    0.096865   0.000000
    50  C    0.012864   0.000000
    51  C    0.051201  -0.000000
    52  C    0.015314   0.000000
    53  C    0.060290  -0.000000
    54  F   -0.121897   0.000000
    55  C    0.011526  -0.000000
    56  C    0.007725   0.000000
    57  N   -0.179804  -0.000000
    58  C    0.134213   0.000000
    59  C   -0.201919  -0.000000
    60  S    0.146466   0.000000
    61  C    0.098891   0.000000
    62  C    0.013702   0.000000
    63  C    0.050845  -0.000000
    64  C    0.014662   0.000000
    65  C    0.063293  -0.000000
    66  F   -0.122888   0.000000
    67  C    0.006651   0.000000
    68  C    0.007289  -0.000000
    69  N   -0.179806  -0.000000
    70  C    0.133697  -0.000000
    71  C   -0.201017  -0.000000
    72  S    0.145790  -0.000000
    73  C    0.096754   0.000000
    74  C    0.012943  -0.000000
    75  C    0.049252  -0.000000
    76  C    0.023665   0.000000
    77  C    0.065501  -0.000000
    78  F   -0.124598  -0.000000
    79  C    0.005210  -0.000000
    80  C   -0.015279  -0.000000
    81  N   -0.182444   0.000000
    82  C    0.132075  -0.000000
    83  C   -0.164071   0.000000
    84  S    0.157182  -0.000000
    85  H   -0.008923  -0.000000
    86  H   -0.014031  -0.000000
    87  H   -0.010730  -0.000000
    88  H   -0.002109   0.000000
    89  H    0.004510   0.000000
    90  H   -0.016176  -0.000000
    91  H   -0.013431  -0.000000
    92  H   -0.010181  -0.000000
    93  H    0.003154   0.000000
    94  H   -0.023936  -0.000000
    95  H   -0.009266  -0.000000
    96  H   -0.004278  -0.000000
    97  H    0.005569   0.000000
    98  H   -0.020058  -0.000000
    99  H   -0.012615   0.000000
   100  H   -0.006271   0.000000
   101  H    0.004351   0.000000
   102  H   -0.021716  -0.000000
   103  H   -0.013286  -0.000000
   104  H   -0.003821   0.000000
   105  H    0.003397  -0.000000
   106  H   -0.013349  -0.000000
   107  H   -0.013222  -0.000000
   108  H   -0.012366   0.000000
   109  H    0.002882   0.000000
   110  H   -0.014413   0.000000
   111  H   -0.013791   0.000000
   112  H   -0.013270   0.000000
   113  H    0.001215   0.000000
   114  H    0.024611  -0.000000
 Sum of Mulliken charges =  -0.00000  -0.00000

 Dipole moment (field-independent basis, Debye):
    X=              2.2243    Y=             -3.1022    Z=             -1.0852  Tot=              3.9685
 Quadrupole moment (field-independent basis, Debye-Ang):
   XX=           -429.6490   YY=           -487.9926   ZZ=           -530.7305
   XY=            -55.3339   XZ=            -24.1571   YZ=              2.4852

 Normal termination of Gaussian 16 at Sat Jul 25 12:01:43 2020.
