 Gaussian 16, Revision A.03,
 Gaussian 16:  EM64L-G16RevA.03 25-Dec-2016

 ---------------------------------------------------------------
 #P uLC-wPBE/cc-pVDZ iop(3/107=0467500000, 3/108=0467500000) opt
 ---------------------------------------------------------------

 ----------------
 H23 C33 S3 O3 F3
 ----------------
 Symbolic Z-matrix:
 Charge =  0 Multiplicity = 1

 SCF Done:  E(ULC-wPBE) =  -2989.51932999     A.U. after   18 cycles
 SCF Done:  E(ULC-wPBE) =  -2989.58984061     A.U. after   14 cycles
 SCF Done:  E(ULC-wPBE) =  -2989.63529262     A.U. after   15 cycles
 SCF Done:  E(ULC-wPBE) =  -2989.64770212     A.U. after   14 cycles
 SCF Done:  E(ULC-wPBE) =  -2989.65152928     A.U. after   15 cycles
 SCF Done:  E(ULC-wPBE) =  -2989.65343130     A.U. after   15 cycles
 SCF Done:  E(ULC-wPBE) =  -2989.65462322     A.U. after   14 cycles
 SCF Done:  E(ULC-wPBE) =  -2989.65507527     A.U. after   13 cycles
 SCF Done:  E(ULC-wPBE) =  -2989.65527611     A.U. after   14 cycles
 SCF Done:  E(ULC-wPBE) =  -2989.65536601     A.U. after   12 cycles
 SCF Done:  E(ULC-wPBE) =  -2989.65541873     A.U. after   12 cycles
 SCF Done:  E(ULC-wPBE) =  -2989.65544059     A.U. after   11 cycles
 SCF Done:  E(ULC-wPBE) =  -2989.65544621     A.U. after   11 cycles
 SCF Done:  E(ULC-wPBE) =  -2989.65544961     A.U. after   11 cycles
 SCF Done:  E(ULC-wPBE) =  -2989.65545121     A.U. after   11 cycles
 SCF Done:  E(ULC-wPBE) =  -2989.65545210     A.U. after   10 cycles
 SCF Done:  E(ULC-wPBE) =  -2989.65545273     A.U. after   10 cycles
 SCF Done:  E(ULC-wPBE) =  -2989.65545282     A.U. after    7 cycles
 SCF Done:  E(ULC-wPBE) =  -2989.65545284     A.U. after    6 cycles
 Optimization completed.
    -- Stationary point found.

                         Standard orientation:
 ---------------------------------------------------------------------
 Center     Atomic      Atomic             Coordinates (Angstroms)
 Number     Number       Type             X           Y           Z
 ---------------------------------------------------------------------
      1          6           0      -10.922692   -2.756978   -0.530092
      2          6           0      -10.943991   -1.423170   -0.906408
      3          6           0       -9.810533   -0.641426   -0.770548
      4          6           0       -8.621494   -1.159278   -0.251632
      5          6           0       -8.642221   -2.502848    0.108978
      6          9           0       -7.526904   -3.063536    0.602298
      7          6           0       -9.757999   -3.302081   -0.019539
      8          6           0       -7.422408   -0.324101   -0.100807
      9          6           0       -7.367309    1.036118    0.077160
     10          8           0       -8.492969    1.775776    0.186919
     11          6           0       -8.343033    3.131888    0.520347
     12          6           0       -6.042623    1.548138    0.133357
     13          6           0       -5.101140    0.572988   -0.008698
     14         16           0       -5.823536   -0.963414   -0.203688
     15          6           0       -3.641406    0.735592    0.006919
     16          6           0       -3.050406    1.907187   -0.460954
     17          6           0       -1.679464    2.069991   -0.438171
     18          6           0       -0.825221    1.076472    0.047272
     19          6           0       -1.446327   -0.085416    0.494632
     20          9           0       -0.691377   -1.088508    0.966545
     21          6           0       -2.810263   -0.270131    0.486225
     22          6           0        0.630696    1.254744    0.074330
     23          6           0        1.329294    2.437007    0.113088
     24          8           0        0.693020    3.627045    0.183314
     25          6           0        1.485980    4.772789    0.362662
     26          6           0        2.739273    2.265120    0.077726
     27          6           0        3.102076    0.953271    0.006744
     28         16           0        1.733845   -0.069856   -0.011112
     29          6           0        4.465225    0.407712   -0.038303
     30          6           0        5.497764    1.121558   -0.642281
     31          6           0        6.783117    0.617987   -0.677898
     32          6           0        7.106967   -0.620303   -0.118519
     33          6           0        6.051390   -1.312778    0.465578
     34          9           0        6.283575   -2.513444    1.015518
     35          6           0        4.762876   -0.831096    0.517323
     36          6           0        8.475748   -1.149777   -0.154792
     37          6           0        9.645011   -0.433660   -0.234107
     38          8           0        9.642269    0.918023   -0.247243
     39          6           0       10.887628    1.564463   -0.180724
     40          6           0       10.808383   -1.252773   -0.301958
     41          6           0       10.494445   -2.572502   -0.280247
     42         16           0        8.823316   -2.840739   -0.163066
     43          1           0      -11.810633   -3.377126   -0.636196
     44          1           0      -11.851782   -0.984228   -1.315388
     45          1           0       -9.833673    0.402520   -1.066530
     46          1           0       -9.690317   -4.342948    0.287452
     47          1           0       -7.810838    3.685770   -0.265554
     48          1           0       -9.352243    3.539449    0.618698
     49          1           0       -7.813349    3.255245    1.474820
     50          1           0       -5.790531    2.589263    0.305062
     51          1           0       -3.673377    2.696854   -0.875261
     52          1           0       -1.243240    2.990597   -0.811494
     53          1           0       -3.206122   -1.204303    0.878565
     54          1           0        2.151199    4.942759   -0.495247
     55          1           0        0.796017    5.615935    0.448065
     56          1           0        2.085222    4.707073    1.280920
     57          1           0        3.460908    3.073017    0.135962
     58          1           0        5.286825    2.077386   -1.116879
     59          1           0        7.570278    1.191091   -1.156825
     60          1           0        4.006898   -1.433859    1.015837
     61          1           0       10.678072    2.636235   -0.139086
     62          1           0       11.500031    1.356134   -1.069018
     63          1           0       11.443660    1.274000    0.721087
     64          1           0       11.825950   -0.881602   -0.362260
     65          1           0       11.182766   -3.410723   -0.314009
 ---------------------------------------------------------------------

 The electronic state is 1-A.
 Alpha  occ. eigenvalues --  -88.35579 -88.35577 -88.35356 -24.53570 -24.53531
 Alpha  occ. eigenvalues --  -24.53140 -19.05451 -19.05406 -19.05116 -10.24496
 Alpha  occ. eigenvalues --  -10.24427 -10.23937 -10.22513 -10.22427 -10.22207
 Alpha  occ. eigenvalues --  -10.21817 -10.21812 -10.21542 -10.19949 -10.19722
 Alpha  occ. eigenvalues --  -10.19104 -10.18750 -10.18676 -10.18646 -10.18531
 Alpha  occ. eigenvalues --  -10.18458 -10.18425 -10.18375 -10.17953 -10.16699
 Alpha  occ. eigenvalues --  -10.16663 -10.16614 -10.16596 -10.16555 -10.16495
 Alpha  occ. eigenvalues --  -10.16494 -10.16392 -10.16288 -10.16279 -10.16121
 Alpha  occ. eigenvalues --  -10.16096 -10.15690  -7.96481  -7.96473  -7.96252
 Alpha  occ. eigenvalues --   -5.97707  -5.97707  -5.97484  -5.97146  -5.97143
 Alpha  occ. eigenvalues --   -5.96925  -5.96748  -5.96723  -5.96503  -1.38402
 Alpha  occ. eigenvalues --   -1.38351  -1.37918  -1.25098  -1.25044  -1.24783
 Alpha  occ. eigenvalues --   -1.08814  -1.08404  -1.07852  -1.05905  -1.05134
 Alpha  occ. eigenvalues --   -1.04444  -0.98668  -0.97026  -0.95084  -0.93106
 Alpha  occ. eigenvalues --   -0.92986  -0.92759  -0.92340  -0.92083  -0.91857
 Alpha  occ. eigenvalues --   -0.90948  -0.89690  -0.88941  -0.86334  -0.85518
 Alpha  occ. eigenvalues --   -0.83982  -0.80696  -0.79286  -0.78333  -0.78162
 Alpha  occ. eigenvalues --   -0.77380  -0.76407  -0.73626  -0.73062  -0.72305
 Alpha  occ. eigenvalues --   -0.71362  -0.70983  -0.70707  -0.69658  -0.69282
 Alpha  occ. eigenvalues --   -0.68777  -0.67166  -0.65873  -0.65739  -0.64511
 Alpha  occ. eigenvalues --   -0.63951  -0.63458  -0.62971  -0.62888  -0.62622
 Alpha  occ. eigenvalues --   -0.62404  -0.62128  -0.61956  -0.61761  -0.61729
 Alpha  occ. eigenvalues --   -0.61326  -0.60942  -0.60320  -0.59200  -0.58156
 Alpha  occ. eigenvalues --   -0.57465  -0.57319  -0.57218  -0.56848  -0.56570
 Alpha  occ. eigenvalues --   -0.55654  -0.55300  -0.55031  -0.54622  -0.54236
 Alpha  occ. eigenvalues --   -0.54031  -0.53835  -0.53519  -0.53220  -0.53044
 Alpha  occ. eigenvalues --   -0.51449  -0.51064  -0.50280  -0.50261  -0.50110
 Alpha  occ. eigenvalues --   -0.49520  -0.49059  -0.48899  -0.48054  -0.46803
 Alpha  occ. eigenvalues --   -0.46718  -0.46557  -0.46387  -0.46281  -0.46186
 Alpha  occ. eigenvalues --   -0.45576  -0.45467  -0.45418  -0.42018  -0.40387
 Alpha  occ. eigenvalues --   -0.38377  -0.36522  -0.36434  -0.35913  -0.35429
 Alpha  occ. eigenvalues --   -0.34925  -0.34764  -0.32333  -0.30339  -0.28274
 Alpha virt. eigenvalues --    0.00824   0.03307   0.06464   0.08017   0.08104
 Alpha virt. eigenvalues --    0.08617   0.09280   0.11491   0.13309   0.14693
 Alpha virt. eigenvalues --    0.14889   0.14948   0.15434   0.15638   0.15770

  Beta  occ. eigenvalues --  -88.35579 -88.35577 -88.35356 -24.53570 -24.53531
  Beta  occ. eigenvalues --  -24.53140 -19.05451 -19.05406 -19.05116 -10.24496
  Beta  occ. eigenvalues --  -10.24427 -10.23937 -10.22513 -10.22427 -10.22207
  Beta  occ. eigenvalues --  -10.21817 -10.21812 -10.21542 -10.19949 -10.19722
  Beta  occ. eigenvalues --  -10.19104 -10.18750 -10.18676 -10.18646 -10.18531
  Beta  occ. eigenvalues --  -10.18458 -10.18425 -10.18375 -10.17953 -10.16699
  Beta  occ. eigenvalues --  -10.16663 -10.16614 -10.16596 -10.16555 -10.16495
  Beta  occ. eigenvalues --  -10.16494 -10.16392 -10.16288 -10.16279 -10.16121
  Beta  occ. eigenvalues --  -10.16096 -10.15690  -7.96481  -7.96473  -7.96252
  Beta  occ. eigenvalues --   -5.97707  -5.97707  -5.97484  -5.97146  -5.97143
  Beta  occ. eigenvalues --   -5.96925  -5.96748  -5.96723  -5.96503  -1.38402
  Beta  occ. eigenvalues --   -1.38351  -1.37918  -1.25098  -1.25044  -1.24783
  Beta  occ. eigenvalues --   -1.08814  -1.08404  -1.07852  -1.05905  -1.05134
  Beta  occ. eigenvalues --   -1.04444  -0.98668  -0.97026  -0.95084  -0.93106
  Beta  occ. eigenvalues --   -0.92986  -0.92759  -0.92340  -0.92083  -0.91857
  Beta  occ. eigenvalues --   -0.90948  -0.89690  -0.88941  -0.86334  -0.85518
  Beta  occ. eigenvalues --   -0.83982  -0.80696  -0.79286  -0.78333  -0.78162
  Beta  occ. eigenvalues --   -0.77380  -0.76407  -0.73626  -0.73062  -0.72305
  Beta  occ. eigenvalues --   -0.71362  -0.70983  -0.70707  -0.69658  -0.69282
  Beta  occ. eigenvalues --   -0.68777  -0.67166  -0.65873  -0.65739  -0.64511
  Beta  occ. eigenvalues --   -0.63951  -0.63458  -0.62971  -0.62888  -0.62622
  Beta  occ. eigenvalues --   -0.62404  -0.62128  -0.61956  -0.61761  -0.61729
  Beta  occ. eigenvalues --   -0.61326  -0.60942  -0.60320  -0.59200  -0.58156
  Beta  occ. eigenvalues --   -0.57465  -0.57319  -0.57218  -0.56848  -0.56570
  Beta  occ. eigenvalues --   -0.55654  -0.55300  -0.55031  -0.54622  -0.54236
  Beta  occ. eigenvalues --   -0.54031  -0.53835  -0.53519  -0.53220  -0.53044
  Beta  occ. eigenvalues --   -0.51449  -0.51064  -0.50280  -0.50261  -0.50110
  Beta  occ. eigenvalues --   -0.49520  -0.49059  -0.48899  -0.48054  -0.46803
  Beta  occ. eigenvalues --   -0.46718  -0.46557  -0.46387  -0.46281  -0.46186
  Beta  occ. eigenvalues --   -0.45576  -0.45467  -0.45418  -0.42018  -0.40387
  Beta  occ. eigenvalues --   -0.38377  -0.36522  -0.36434  -0.35913  -0.35429
  Beta  occ. eigenvalues --   -0.34925  -0.34764  -0.32333  -0.30339  -0.28274
  Beta virt. eigenvalues --    0.00824   0.03307   0.06464   0.08017   0.08104
  Beta virt. eigenvalues --    0.08617   0.09280   0.11491   0.13309   0.14693
  Beta virt. eigenvalues --    0.14889   0.14948   0.15434   0.15638   0.15770

 Mulliken charges and spin densities:
               1          2
     1  C    0.000659  -0.000000
     2  C    0.002519   0.000000
     3  C   -0.003679  -0.000000
     4  C   -0.027095   0.000000
     5  C    0.096432  -0.000000
     6  F   -0.136196  -0.000000
     7  C   -0.008481   0.000000
     8  C   -0.194264   0.000000
     9  C    0.166638  -0.000000
    10  O   -0.272189   0.000000
    11  C    0.035029   0.000000
    12  C   -0.019304  -0.000000
    13  C   -0.158247   0.000000
    14  S    0.197115   0.000000
    15  C    0.040975  -0.000000
    16  C   -0.008144  -0.000000
    17  C    0.008199   0.000000
    18  C   -0.015387   0.000000
    19  C    0.102747  -0.000000
    20  F   -0.132806  -0.000000
    21  C   -0.007755   0.000000
    22  C   -0.194861  -0.000000
    23  C    0.162306   0.000000
    24  O   -0.274069  -0.000000
    25  C    0.035516  -0.000000
    26  C   -0.016735  -0.000000
    27  C   -0.158022   0.000000
    28  S    0.198274   0.000000
    29  C    0.039799   0.000000
    30  C   -0.009015   0.000000
    31  C    0.010562  -0.000000
    32  C   -0.013779   0.000000
    33  C    0.105616  -0.000000
    34  F   -0.132615   0.000000
    35  C   -0.009337   0.000000
    36  C   -0.202000  -0.000000
    37  C    0.145725   0.000000
    38  O   -0.272698   0.000000
    39  C    0.033311   0.000000
    40  C   -0.009712   0.000000
    41  C   -0.143627  -0.000000
    42  S    0.191770   0.000000
    43  H    0.019018  -0.000000
    44  H    0.013452   0.000000
    45  H    0.020280  -0.000000
    46  H    0.028961  -0.000000
    47  H    0.052699  -0.000000
    48  H    0.067614   0.000000
    49  H    0.056872   0.000000
    50  H    0.019031   0.000000
    51  H    0.003924   0.000000
    52  H    0.021082   0.000000
    53  H    0.033807   0.000000
    54  H    0.053768   0.000000
    55  H    0.067231  -0.000000
    56  H    0.057727   0.000000
    57  H    0.019404   0.000000
    58  H    0.003930  -0.000000
    59  H    0.021683  -0.000000
    60  H    0.033958  -0.000000
    61  H    0.066920  -0.000000
    62  H    0.054742  -0.000000
    63  H    0.056161  -0.000000
    64  H    0.022415   0.000000
    65  H    0.052145   0.000000
 Sum of Mulliken charges =  -0.00000   0.00000

 Dipole moment (field-independent basis, Debye):
    X=              2.9524    Y=              6.7507    Z=             -0.6587  Tot=              7.3975
 Quadrupole moment (field-independent basis, Debye-Ang):
   XX=           -169.9027   YY=           -223.8253   ZZ=           -266.0150
   XY=              3.0039   XZ=             -2.8106   YZ=              0.3556

 Normal termination of Gaussian 16 at Thu Jul 23 12:18:44 2020.
