 Gaussian 16, Revision A.03,
 Gaussian 16:  EM64L-G16RevA.03 25-Dec-2016

 ---------------------------------------------------------------
 #P uLC-wPBE/cc-pVDZ iop(3/107=0394500000, 3/108=0394500000) opt
 ---------------------------------------------------------------

 -----------------
 H23 C56 S7 N14 F7
 -----------------
 Symbolic Z-matrix:
 Charge =  0 Multiplicity = 1

 SCF Done:  E(ULC-wPBE) =  -6397.12868626     A.U. after   17 cycles
 SCF Done:  E(ULC-wPBE) =  -6397.22963546     A.U. after   14 cycles
 SCF Done:  E(ULC-wPBE) =  -6397.33037448     A.U. after   15 cycles
 SCF Done:  E(ULC-wPBE) =  -6397.35442433     A.U. after   14 cycles
 SCF Done:  E(ULC-wPBE) =  -6397.35812754     A.U. after   13 cycles
 SCF Done:  E(ULC-wPBE) =  -6397.35865942     A.U. after   13 cycles
 SCF Done:  E(ULC-wPBE) =  -6397.35876729     A.U. after   13 cycles
 SCF Done:  E(ULC-wPBE) =  -6397.35889497     A.U. after   12 cycles
 SCF Done:  E(ULC-wPBE) =  -6397.35893088     A.U. after   11 cycles
 SCF Done:  E(ULC-wPBE) =  -6397.35894591     A.U. after   11 cycles
 SCF Done:  E(ULC-wPBE) =  -6397.35895311     A.U. after    9 cycles
 SCF Done:  E(ULC-wPBE) =  -6397.35895274     A.U. after    9 cycles
 SCF Done:  E(ULC-wPBE) =  -6397.35895291     A.U. after   10 cycles
 SCF Done:  E(ULC-wPBE) =  -6397.35895309     A.U. after   10 cycles
 SCF Done:  E(ULC-wPBE) =  -6397.35895309     A.U. after   11 cycles
 SCF Done:  E(ULC-wPBE) =  -6397.35895332     A.U. after    7 cycles
 SCF Done:  E(ULC-wPBE) =  -6397.35895308     A.U. after    7 cycles
 SCF Done:  E(ULC-wPBE) =  -6397.35895393     A.U. after    7 cycles
 SCF Done:  E(ULC-wPBE) =  -6397.35895441     A.U. after    7 cycles
 SCF Done:  E(ULC-wPBE) =  -6397.35895491     A.U. after    6 cycles
 Optimization completed.
    -- Stationary point found.

                         Standard orientation:
 ---------------------------------------------------------------------
 Center     Atomic      Atomic             Coordinates (Angstroms)
 Number     Number       Type             X           Y           Z
 ---------------------------------------------------------------------
      1          6           0      -26.660686    1.475285   -0.687815
      2          6           0      -25.533730    2.203665   -1.038187
      3          7           0      -24.309973    1.834665   -0.682379
      4          6           0      -24.213584    0.713410    0.037995
      5          7           0      -25.223142   -0.063146    0.429924
      6          6           0      -26.436950    0.329635    0.060862
      7          6           0      -22.854589    0.321229    0.420372
      8          6           0      -22.411754   -0.750297    1.146869
      9          9           0      -23.199111   -1.680387    1.672574
     10          6           0      -21.007517   -0.803102    1.318895
     11          6           0      -20.387267    0.250890    0.707194
     12         16           0      -21.515301    1.288893   -0.076939
     13          6           0      -18.947555    0.531677    0.669533
     14          6           0      -18.424168    1.824062    0.658093
     15          7           0      -17.125179    2.081827    0.629914
     16          6           0      -16.313191    1.025253    0.623322
     17          7           0      -16.694250   -0.255908    0.632364
     18          6           0      -17.996487   -0.488182    0.647806
     19          6           0      -14.869685    1.261077    0.601359
     20          6           0      -14.163725    2.433832    0.596235
     21          9           0      -14.712653    3.641412    0.618396
     22          6           0      -12.757867    2.272423    0.575918
     23          6           0      -12.404601    0.951265    0.564445
     24         16           0      -13.783509   -0.079674    0.569748
     25          6           0      -11.046085    0.397426    0.542535
     26          6           0       -9.996037    1.042908   -0.110119
     27          7           0       -8.761033    0.569411   -0.126248
     28          6           0       -8.553057   -0.587095    0.511081
     29          7           0       -9.475307   -1.299368    1.157716
     30          6           0      -10.701805   -0.799514    1.169582
     31          6           0       -7.181600   -1.094395    0.480510
     32          6           0       -6.644975   -2.229913    1.025106
     33          9           0       -7.333277   -3.129731    1.715348
     34          6           0       -5.259471   -2.395737    0.789108
     35          6           0       -4.748696   -1.362241    0.053266
     36         16           0       -5.954523   -0.196825   -0.336261
     37          6           0       -3.359088   -1.187339   -0.384040
     38          6           0       -2.282181   -1.628036    0.384867
     39          7           0       -1.023450   -1.494940    0.000823
     40          6           0       -0.814751   -0.894190   -1.175026
     41          7           0       -1.758367   -0.422901   -1.989631
     42          6           0       -3.011294   -0.578750   -1.589460
     43          6           0        0.583691   -0.750942   -1.578533
     44          6           0        1.127849   -0.199213   -2.707018
     45          9           0        0.423680    0.329821   -3.699053
     46          6           0        2.541607   -0.239127   -2.756655
     47          6           0        3.066209   -0.832155   -1.641469
     48         16           0        1.837464   -1.326597   -0.541633
     49          6           0        4.484906   -1.050958   -1.337773
     50          6           0        5.474810   -0.160215   -1.752357
     51          7           0        6.760166   -0.348129   -1.503125
     52          6           0        7.083335   -1.443996   -0.808986
     53          7           0        6.228826   -2.358699   -0.351347
     54          6           0        4.948816   -2.155257   -0.623869
     55          6           0        8.508273   -1.630489   -0.537996
     56          6           0        9.158924   -2.634034    0.128050
     57          9           0        8.560430   -3.685650    0.671968
     58          6           0       10.564104   -2.479880    0.193829
     59          6           0       10.973422   -1.336452   -0.435136
     60         16           0        9.646702   -0.457353   -1.091640
     61          6           0       12.348583   -0.843251   -0.570955
     62          6           0       12.796690   -0.134516   -1.685051
     63          7           0       14.038368    0.307796   -1.813631
     64          6           0       14.871400    0.031733   -0.810331
     65          7           0       14.559724   -0.637281    0.304512
     66          6           0       13.310808   -1.058199    0.415530
     67          6           0       16.255051    0.493363   -0.911644
     68          6           0       16.886311    1.186948   -1.908954
     69          9           0       16.304964    1.578338   -3.035561
     70          6           0       18.251876    1.461662   -1.659450
     71          6           0       18.650991    0.964361   -0.449435
     72         16           0       17.361147    0.176757    0.375127
     73          6           0       19.987495    1.054497    0.149263
     74          6           0       20.818962    2.154138   -0.061813
     75          7           0       22.032915    2.247074    0.454205
     76          6           0       22.441949    1.227904    1.217663
     77          7           0       21.734684    0.133136    1.499200
     78          6           0       20.526855    0.058046    0.961656
     79          6           0       23.785113    1.349810    1.782757
     80          6           0       24.484157    0.490969    2.588658
     81          9           0       24.023782   -0.677229    3.020436
     82          6           0       25.779078    0.945441    2.945389
     83          6           0       26.036128    2.161859    2.390821
     84         16           0       24.737026    2.752208    1.451872
     85          1           0      -27.662473    1.784923   -0.983406
     86          1           0      -25.611229    3.122059   -1.628625
     87          1           0      -27.267731   -0.306788    0.382132
     88          1           0      -20.507776   -1.578446    1.896729
     89          1           0      -19.089917    2.693709    0.681973
     90          1           0      -18.305370   -1.538226    0.630207
     91          1           0      -12.062604    3.109560    0.598771
     92          1           0      -10.167522    1.977776   -0.653203
     93          1           0      -11.454691   -1.377361    1.716742
     94          1           0       -4.696757   -3.261616    1.133056
     95          1           0       -2.448157   -2.098048    1.359498
     96          1           0       -3.786221   -0.207099   -2.268797
     97          1           0        3.118031    0.133541   -3.601372
     98          1           0        5.211708    0.750782   -2.299386
     99          1           0        4.249899   -2.917567   -0.262551
    100          1           0       11.221278   -3.208810    0.664420
    101          1           0       12.118532    0.077575   -2.518917
    102          1           0       13.053296   -1.583897    1.340604
    103          1           0       18.894478    1.978671   -2.369648
    104          1           0       20.479342    3.001659   -0.666020
    105          1           0       19.955537   -0.850940    1.180236
    106          1           0       26.460396    0.381524    3.579175
    107          1           0       26.945679    2.750773    2.491959
 ---------------------------------------------------------------------

 Alpha  occ. eigenvalues --   -0.99844  -0.99432  -0.98884  -0.98234  -0.97534
 Alpha  occ. eigenvalues --   -0.96902  -0.96016  -0.92919  -0.92189  -0.91425
 Alpha  occ. eigenvalues --   -0.90905  -0.90749  -0.90410  -0.90301  -0.89763
 Alpha  occ. eigenvalues --   -0.89568  -0.89109  -0.88731  -0.88183  -0.87199
 Alpha  occ. eigenvalues --   -0.86395  -0.83837  -0.82831  -0.82442  -0.82220
 Alpha  occ. eigenvalues --   -0.81956  -0.81762  -0.81680  -0.81443  -0.81137
 Alpha  occ. eigenvalues --   -0.80970  -0.80714  -0.79791  -0.79059  -0.78708
 Alpha  occ. eigenvalues --   -0.73702  -0.73396  -0.73101  -0.72979  -0.72861
 Alpha  occ. eigenvalues --   -0.72741  -0.72310  -0.72262  -0.72187  -0.72055
 Alpha  occ. eigenvalues --   -0.71857  -0.71675  -0.71630  -0.71257  -0.70186
 Alpha  occ. eigenvalues --   -0.70041  -0.69835  -0.69579  -0.69306  -0.69094
 Alpha  occ. eigenvalues --   -0.68696  -0.66791  -0.66742  -0.66680  -0.66615
 Alpha  occ. eigenvalues --   -0.66517  -0.66089  -0.65519  -0.64054  -0.63616
 Alpha  occ. eigenvalues --   -0.63105  -0.62638  -0.62303  -0.62160  -0.61842
 Alpha  occ. eigenvalues --   -0.61721  -0.61538  -0.61517  -0.61464  -0.61318
 Alpha  occ. eigenvalues --   -0.61286  -0.60716  -0.60491  -0.60367  -0.60177
 Alpha  occ. eigenvalues --   -0.59880  -0.59499  -0.59092  -0.59059  -0.59001
 Alpha  occ. eigenvalues --   -0.58935  -0.58875  -0.58781  -0.58725  -0.58352
 Alpha  occ. eigenvalues --   -0.58188  -0.58016  -0.57645  -0.57511  -0.57497
 Alpha  occ. eigenvalues --   -0.57401  -0.57203  -0.56864  -0.56739  -0.55552
 Alpha  occ. eigenvalues --   -0.55450  -0.55325  -0.55212  -0.55139  -0.54799
 Alpha  occ. eigenvalues --   -0.54761  -0.53922  -0.53799  -0.53705  -0.53662
 Alpha  occ. eigenvalues --   -0.53492  -0.53355  -0.52895  -0.52677  -0.52530
 Alpha  occ. eigenvalues --   -0.52382  -0.52051  -0.51763  -0.51521  -0.51411
 Alpha  occ. eigenvalues --   -0.51141  -0.50821  -0.50766  -0.50486  -0.50198
 Alpha  occ. eigenvalues --   -0.50054  -0.49080  -0.47960  -0.47886  -0.47856
 Alpha  occ. eigenvalues --   -0.47745  -0.47636  -0.47547  -0.46658  -0.46009
 Alpha  occ. eigenvalues --   -0.45410  -0.44928  -0.44917  -0.44874  -0.44839
 Alpha  occ. eigenvalues --   -0.44758  -0.44545  -0.44345  -0.44263  -0.44019
 Alpha  occ. eigenvalues --   -0.43933  -0.43867  -0.43846  -0.43741  -0.43524
 Alpha  occ. eigenvalues --   -0.43351  -0.43272  -0.42439  -0.41305  -0.40486
 Alpha  occ. eigenvalues --   -0.38407  -0.38243  -0.38032  -0.37866  -0.37769
 Alpha  occ. eigenvalues --   -0.37506  -0.37434  -0.37188  -0.36944  -0.36871
 Alpha  occ. eigenvalues --   -0.36835  -0.36695  -0.36661  -0.36105  -0.35795
 Alpha  occ. eigenvalues --   -0.35239  -0.34273  -0.33105  -0.32018  -0.31136
 Alpha  occ. eigenvalues --   -0.30629
 Alpha virt. eigenvalues --   -0.02999  -0.02280  -0.01287  -0.00113   0.01183
 Alpha virt. eigenvalues --    0.02466   0.02801   0.02832   0.02871   0.02899
 Alpha virt. eigenvalues --    0.02985   0.03369   0.03520   0.03600   0.05879

  Beta  occ. eigenvalues --  -88.33768 -88.33745 -88.33739 -88.33671 -88.33536
  Beta  occ. eigenvalues --  -88.33459 -88.32615 -24.51221 -24.51205 -24.51184
  Beta  occ. eigenvalues --  -24.51142 -24.50980 -24.50964 -24.50284 -14.23870
  Beta  occ. eigenvalues --  -14.23865 -14.23815 -14.23800 -14.23676 -14.23499
  Beta  occ. eigenvalues --  -14.23495 -14.23445 -14.23427 -14.23313 -14.23294
  Beta  occ. eigenvalues --  -14.23219 -14.22941 -14.22867 -10.22294 -10.22277
  Beta  occ. eigenvalues --  -10.22252 -10.22211 -10.22034 -10.22008 -10.21898
  Beta  occ. eigenvalues --  -10.21897 -10.21848 -10.21819 -10.21714 -10.21458
  Beta  occ. eigenvalues --  -10.21265 -10.21240 -10.19152 -10.19149 -10.19110
  Beta  occ. eigenvalues --  -10.19055 -10.18990 -10.18982 -10.18980 -10.18940
  Beta  occ. eigenvalues --  -10.18882 -10.18826 -10.18620 -10.18534 -10.18458
  Beta  occ. eigenvalues --  -10.18433 -10.18411 -10.18403 -10.18394 -10.18335
  Beta  occ. eigenvalues --  -10.18191 -10.18123 -10.16500 -10.16499 -10.16456
  Beta  occ. eigenvalues --  -10.16411 -10.16401 -10.16390 -10.16380 -10.16335
  Beta  occ. eigenvalues --  -10.16318 -10.16196 -10.16136 -10.16118 -10.15956
  Beta  occ. eigenvalues --  -10.15326 -10.14486 -10.14482 -10.14460 -10.14457
  Beta  occ. eigenvalues --  -10.14374 -10.14290 -10.14147 -10.13310  -7.94463
  Beta  occ. eigenvalues --   -7.94440  -7.94433  -7.94365  -7.94228  -7.94154
  Beta  occ. eigenvalues --   -7.93324  -5.96022  -5.95999  -5.95992  -5.95925
  Beta  occ. eigenvalues --   -5.95786  -5.95713  -5.95489  -5.95466  -5.95459
  Beta  occ. eigenvalues --   -5.95391  -5.95253  -5.95180  -5.95047  -5.95024
  Beta  occ. eigenvalues --   -5.95018  -5.94950  -5.94872  -5.94814  -5.94738
  Beta  occ. eigenvalues --   -5.94337  -5.93928  -1.36154  -1.36138  -1.36116
  Beta  occ. eigenvalues --   -1.36074  -1.35906  -1.35882  -1.35173  -1.16041
  Beta  occ. eigenvalues --   -1.16008  -1.15964  -1.15939  -1.15832  -1.15385
  Beta  occ. eigenvalues --   -1.15362  -1.07238  -1.07074  -1.06887  -1.06695
  Beta  occ. eigenvalues --   -1.06518  -1.06458  -1.05270  -1.05172  -1.05167
  Beta  occ. eigenvalues --   -1.05120  -1.05092  -1.04986  -1.04562  -1.04528
  Beta  occ. eigenvalues --   -0.99844  -0.99432  -0.98884  -0.98234  -0.97534
  Beta  occ. eigenvalues --   -0.96902  -0.96016  -0.92919  -0.92189  -0.91425
  Beta  occ. eigenvalues --   -0.90905  -0.90749  -0.90410  -0.90301  -0.89763
  Beta  occ. eigenvalues --   -0.89568  -0.89109  -0.88731  -0.88183  -0.87199
  Beta  occ. eigenvalues --   -0.86395  -0.83837  -0.82831  -0.82442  -0.82220
  Beta  occ. eigenvalues --   -0.81956  -0.81762  -0.81680  -0.81443  -0.81137
  Beta  occ. eigenvalues --   -0.80970  -0.80714  -0.79791  -0.79059  -0.78708
  Beta  occ. eigenvalues --   -0.73702  -0.73396  -0.73101  -0.72979  -0.72861
  Beta  occ. eigenvalues --   -0.72741  -0.72310  -0.72262  -0.72187  -0.72055
  Beta  occ. eigenvalues --   -0.71857  -0.71675  -0.71630  -0.71257  -0.70186
  Beta  occ. eigenvalues --   -0.70041  -0.69835  -0.69579  -0.69306  -0.69094
  Beta  occ. eigenvalues --   -0.68696  -0.66791  -0.66742  -0.66680  -0.66615
  Beta  occ. eigenvalues --   -0.66517  -0.66089  -0.65519  -0.64054  -0.63616
  Beta  occ. eigenvalues --   -0.63105  -0.62638  -0.62303  -0.62160  -0.61842
  Beta  occ. eigenvalues --   -0.61721  -0.61538  -0.61517  -0.61464  -0.61318
  Beta  occ. eigenvalues --   -0.61286  -0.60716  -0.60491  -0.60367  -0.60177
  Beta  occ. eigenvalues --   -0.59880  -0.59499  -0.59092  -0.59059  -0.59001
  Beta  occ. eigenvalues --   -0.58935  -0.58875  -0.58781  -0.58725  -0.58352
  Beta  occ. eigenvalues --   -0.58188  -0.58016  -0.57645  -0.57511  -0.57497
  Beta  occ. eigenvalues --   -0.57401  -0.57203  -0.56864  -0.56739  -0.55552
  Beta  occ. eigenvalues --   -0.55450  -0.55325  -0.55212  -0.55139  -0.54799
  Beta  occ. eigenvalues --   -0.54761  -0.53922  -0.53799  -0.53705  -0.53662
  Beta  occ. eigenvalues --   -0.53492  -0.53355  -0.52895  -0.52677  -0.52530
  Beta  occ. eigenvalues --   -0.52382  -0.52051  -0.51763  -0.51521  -0.51411
  Beta  occ. eigenvalues --   -0.51141  -0.50821  -0.50766  -0.50486  -0.50198
  Beta  occ. eigenvalues --   -0.50054  -0.49080  -0.47960  -0.47886  -0.47856
  Beta  occ. eigenvalues --   -0.47745  -0.47636  -0.47547  -0.46658  -0.46009
  Beta  occ. eigenvalues --   -0.45410  -0.44928  -0.44917  -0.44874  -0.44839
  Beta  occ. eigenvalues --   -0.44758  -0.44545  -0.44345  -0.44263  -0.44019
  Beta  occ. eigenvalues --   -0.43933  -0.43867  -0.43846  -0.43741  -0.43524
  Beta  occ. eigenvalues --   -0.43351  -0.43272  -0.42439  -0.41305  -0.40486
  Beta  occ. eigenvalues --   -0.38407  -0.38243  -0.38032  -0.37866  -0.37769
  Beta  occ. eigenvalues --   -0.37506  -0.37434  -0.37188  -0.36944  -0.36871
  Beta  occ. eigenvalues --   -0.36835  -0.36695  -0.36661  -0.36105  -0.35795
  Beta  occ. eigenvalues --   -0.35239  -0.34273  -0.33105  -0.32018  -0.31136
  Beta  occ. eigenvalues --   -0.30629
  Beta virt. eigenvalues --   -0.02999  -0.02280  -0.01287  -0.00113   0.01183
  Beta virt. eigenvalues --    0.02466   0.02801   0.02832   0.02871   0.02899
  Beta virt. eigenvalues --    0.02985   0.03369   0.03520   0.03600   0.05879

 Mulliken charges and spin densities:
               1          2
     1  C   -0.099265  -0.000000
     2  C    0.120309   0.000000
     3  N   -0.218946   0.000000
     4  C    0.219943   0.000000
     5  N   -0.193972   0.000000
     6  C    0.114158   0.000000
     7  C   -0.224436   0.000000
     8  C    0.147806  -0.000000
     9  F   -0.097058  -0.000000
    10  C    0.015393   0.000000
    11  C   -0.167140  -0.000000
    12  S    0.227507  -0.000000
    13  C   -0.097133   0.000000
    14  C    0.134930  -0.000000
    15  N   -0.187755  -0.000000
    16  C    0.223197   0.000000
    17  N   -0.213039  -0.000000
    18  C    0.143087   0.000000
    19  C   -0.226880   0.000000
    20  C    0.148906  -0.000000
    21  F   -0.095697   0.000000
    22  C    0.016527   0.000000
    23  C   -0.166546  -0.000000
    24  S    0.229173   0.000000
    25  C   -0.097748   0.000000
    26  C    0.143474   0.000000
    27  N   -0.212879   0.000000
    28  C    0.223756  -0.000000
    29  N   -0.187613   0.000000
    30  C    0.135164  -0.000000
    31  C   -0.227205  -0.000000
    32  C    0.149087   0.000000
    33  F   -0.095504   0.000000
    34  C    0.016828  -0.000000
    35  C   -0.166473   0.000000
    36  S    0.229525  -0.000000
    37  C   -0.098245  -0.000000
    38  C    0.143650   0.000000
    39  N   -0.212817  -0.000000
    40  C    0.223843  -0.000000
    41  N   -0.187575   0.000000
    42  C    0.135289   0.000000
    43  C   -0.227329   0.000000
    44  C    0.149156  -0.000000
    45  F   -0.095506   0.000000
    46  C    0.016714   0.000000
    47  C   -0.166293  -0.000000
    48  S    0.229543  -0.000000
    49  C   -0.098211   0.000000
    50  C    0.143589  -0.000000
    51  N   -0.212704   0.000000
    52  C    0.223824   0.000000
    53  N   -0.187599   0.000000
    54  C    0.135224   0.000000
    55  C   -0.227539  -0.000000
    56  C    0.149216   0.000000
    57  F   -0.095621  -0.000000
    58  C    0.016679  -0.000000
    59  C   -0.166078  -0.000000
    60  S    0.229321   0.000000
    61  C   -0.098491   0.000000
    62  C    0.135007  -0.000000
    63  N   -0.187707   0.000000
    64  C    0.223769   0.000000
    65  N   -0.212475  -0.000000
    66  C    0.143416   0.000000
    67  C   -0.228083  -0.000000
    68  C    0.149004   0.000000
    69  F   -0.096180  -0.000000
    70  C    0.016348  -0.000000
    71  C   -0.164949   0.000000
    72  S    0.228780  -0.000000
    73  C   -0.099281  -0.000000
    74  C    0.141127   0.000000
    75  N   -0.211443   0.000000
    76  C    0.229508  -0.000000
    77  N   -0.187849   0.000000
    78  C    0.133127   0.000000
    79  C   -0.232395   0.000000
    80  C    0.129738  -0.000000
    81  F   -0.100857   0.000000
    82  C    0.034308   0.000000
    83  C   -0.134402  -0.000000
    84  S    0.215788   0.000000
    85  H    0.023418  -0.000000
    86  H    0.033965   0.000000
    87  H    0.032931  -0.000000
    88  H    0.020530  -0.000000
    89  H    0.036160  -0.000000
    90  H    0.030522   0.000000
    91  H    0.021593   0.000000
    92  H    0.030781   0.000000
    93  H    0.036313   0.000000
    94  H    0.021726  -0.000000
    95  H    0.030788   0.000000
    96  H    0.036412   0.000000
    97  H    0.021737  -0.000000
    98  H    0.030728  -0.000000
    99  H    0.036178   0.000000
   100  H    0.021740   0.000000
   101  H    0.035803  -0.000000
   102  H    0.030521  -0.000000
   103  H    0.021223   0.000000
   104  H    0.029235   0.000000
   105  H    0.034992  -0.000000
   106  H    0.023268  -0.000000
   107  H    0.049612   0.000000
 Sum of Mulliken charges =  -0.00000  -0.00000

 Dipole moment (field-independent basis, Debye):
    X=             -6.2667    Y=              1.2689    Z=             -0.5680  Tot=              6.4190
 Quadrupole moment (field-independent basis, Debye-Ang):
   XX=           -323.4522   YY=           -509.6163   ZZ=           -514.1668
   XY=             -6.5290   XZ=             21.0480   YZ=             -2.8879

 Normal termination of Gaussian 16 at Sun Jul 26 21:24:19 2020.
