 Gaussian 16, Revision A.03,
 Gaussian 16:  EM64L-G16RevA.03 25-Dec-2016

 ---------------------------------------------------------------
 #P uLC-wPBE/cc-pVDZ iop(3/107=0298000000, 3/108=0298000000) opt
 ---------------------------------------------------------------

 --------------
 H23 C70 S7 F21
 --------------
 Symbolic Z-matrix:
 Charge =  0 Multiplicity = 1

 SCF Done:  E(ULC-wPBE) =  -7560.95215560     A.U. after   16 cycles
 SCF Done:  E(ULC-wPBE) =  -7561.04095139     A.U. after   13 cycles
 SCF Done:  E(ULC-wPBE) =  -7561.12284818     A.U. after   14 cycles
 SCF Done:  E(ULC-wPBE) =  -7561.14429879     A.U. after   14 cycles
 SCF Done:  E(ULC-wPBE) =  -7561.15076955     A.U. after   13 cycles
 SCF Done:  E(ULC-wPBE) =  -7561.15269033     A.U. after   13 cycles
 SCF Done:  E(ULC-wPBE) =  -7561.15367241     A.U. after   14 cycles
 SCF Done:  E(ULC-wPBE) =  -7561.15407507     A.U. after   13 cycles
 SCF Done:  E(ULC-wPBE) =  -7561.15417942     A.U. after   14 cycles
 SCF Done:  E(ULC-wPBE) =  -7561.15422554     A.U. after   11 cycles
 SCF Done:  E(ULC-wPBE) =  -7561.15423816     A.U. after   11 cycles
 SCF Done:  E(ULC-wPBE) =  -7561.15424261     A.U. after   11 cycles
 SCF Done:  E(ULC-wPBE) =  -7561.15424365     A.U. after   11 cycles
 SCF Done:  E(ULC-wPBE) =  -7561.15424434     A.U. after   10 cycles
 SCF Done:  E(ULC-wPBE) =  -7561.15424459     A.U. after    7 cycles
 SCF Done:  E(ULC-wPBE) =  -7561.15424464     A.U. after    7 cycles
 SCF Done:  E(ULC-wPBE) =  -7561.15424471     A.U. after    6 cycles
 SCF Done:  E(ULC-wPBE) =  -7561.15424472     A.U. after    6 cycles
 SCF Done:  E(ULC-wPBE) =  -7561.15424463     A.U. after    5 cycles
 Optimization completed.
    -- Stationary point found.

                         Standard orientation:
 ---------------------------------------------------------------------
 Center     Atomic      Atomic             Coordinates (Angstroms)
 Number     Number       Type             X           Y           Z
 ---------------------------------------------------------------------
      1          6           0      -26.685768    3.493171    0.872440
      2          6           0      -25.677144    3.413684    1.830360
      3          6           0      -24.610955    2.555757    1.603991
      4          9           0      -23.635497    2.479797    2.528165
      5          6           0      -24.495381    1.762574    0.456310
      6          6           0      -25.529657    1.890902   -0.479497
      7          9           0      -25.457098    1.176122   -1.613153
      8          6           0      -26.618314    2.731541   -0.291557
      9          6           0      -23.365830    0.847429    0.234669
     10          6           0      -23.413486   -0.459712   -0.178766
     11          9           0      -24.561246   -1.113950   -0.394599
     12          6           0      -22.153297   -1.088529   -0.338778
     13          6           0      -21.121566   -0.235601   -0.034676
     14         16           0      -21.711008    1.322751    0.434238
     15          6           0      -19.675790   -0.520758   -0.068149
     16          6           0      -18.791523    0.124533    0.805352
     17          6           0      -17.440643   -0.176645    0.750336
     18          9           0      -16.611260    0.454118    1.600505
     19          6           0      -16.892164   -1.109265   -0.137258
     20          6           0      -17.809427   -1.721931   -1.000654
     21          9           0      -17.347860   -2.597899   -1.905594
     22          6           0      -19.168423   -1.451205   -0.983144
     23          6           0      -15.459386   -1.431871   -0.172655
     24          6           0      -14.880441   -2.674967   -0.223866
     25          9           0      -15.589077   -3.810133   -0.195434
     26          6           0      -13.464487   -2.679047   -0.281090
     27          6           0      -12.955231   -1.404185   -0.268330
     28         16           0      -14.217484   -0.222503   -0.194840
     29          6           0      -11.538710   -0.997908   -0.304538
     30          6           0      -11.107276    0.176033    0.324176
     31          6           0       -9.766337    0.524490    0.276469
     32          9           0       -9.377014    1.639362    0.911811
     33          6           0       -8.796399   -0.241340   -0.382071
     34          6           0       -9.270608   -1.410620   -0.988404
     35          9           0       -8.387455   -2.194411   -1.632385
     36          6           0      -10.599946   -1.797892   -0.968337
     37          6           0       -7.385543    0.165611   -0.426642
     38          6           0       -6.879292    1.409389   -0.709241
     39          9           0       -7.650180    2.449640   -1.048080
     40          6           0       -5.467496    1.514711   -0.645244
     41          6           0       -4.886737    0.316980   -0.309260
     42         16           0       -6.078013   -0.915287   -0.069560
     43          6           0       -3.450936    0.021994   -0.153018
     44          6           0       -2.574862    1.026176    0.278187
     45          6           0       -1.227082    0.739069    0.414866
     46          9           0       -0.405186    1.718777    0.831400
     47          6           0       -0.673955   -0.519812    0.152248
     48          6           0       -1.583071   -1.491401   -0.284157
     49          9           0       -1.116938   -2.710899   -0.590288
     50          6           0       -2.939537   -1.249742   -0.437082
     51          6           0        0.755132   -0.815293    0.321057
     52          6           0        1.319156   -1.903900    0.937420
     53          9           0        0.595811   -2.856898    1.537240
     54          6           0        2.735734   -1.939154    0.921603
     55          6           0        3.260712   -0.845181    0.279430
     56         16           0        2.012329    0.203597   -0.300894
     57          6           0        4.682691   -0.519754    0.067148
     58          6           0        5.622828   -1.550172   -0.060021
     59          6           0        6.957160   -1.232592   -0.250496
     60          9           0        7.841414   -2.238812   -0.370521
     61          6           0        7.435371    0.080418   -0.334450
     62          6           0        6.463645    1.079018   -0.194921
     63          9           0        6.855567    2.360991   -0.228154
     64          6           0        5.117733    0.808989   -0.001287
     65          6           0        8.851921    0.401697   -0.554198
     66          6           0        9.379016    1.311934   -1.435479
     67          9           0        8.627583    2.021305   -2.286048
     68          6           0       10.790689    1.432859   -1.405436
     69          6           0       11.350029    0.588062   -0.479058
     70         16           0       10.138995   -0.333711    0.344851
     71          6           0       12.779043    0.416469   -0.160375
     72          6           0       13.659794    1.496535   -0.299794
     73          6           0       15.001415    1.321485   -0.004553
     74          9           0       15.827661    2.373351   -0.144976
     75          6           0       15.543717    0.110540    0.441868
     76          6           0       14.630226   -0.944319    0.559291
     77          9           0       15.086269   -2.144554    0.946072
     78          6           0       13.279577   -0.816480    0.274014
     79          6           0       16.966157   -0.055084    0.769333
     80          6           0       17.507233   -0.661267    1.875064
     81          9           0       16.762794   -1.158647    2.870066
     82          6           0       18.923505   -0.701549    1.908830
     83          6           0       19.471957   -0.105982    0.800280
     84         16           0       18.245771    0.486253   -0.268004
     85          6           0       20.901235    0.057835    0.478022
     86          6           0       21.354089    1.157605   -0.260885
     87          6           0       22.706570    1.281975   -0.535030
     88          9           0       23.117091    2.348535   -1.243370
     89          6           0       23.669932    0.361728   -0.107430
     90          6           0       23.172183   -0.728197    0.617709
     91          9           0       24.034120   -1.670902    1.027143
     92          6           0       21.828693   -0.895225    0.915246
     93          6           0       25.103981    0.514866   -0.390561
     94          6           0       26.147591    0.378052    0.489590
     95          9           0       25.972169    0.114454    1.791319
     96          6           0       27.439214    0.555723   -0.074512
     97          6           0       27.353078    0.832227   -1.409981
     98         16           0       25.729405    0.880233   -1.967054
     99          1           0      -27.536372    4.162379    1.034569
    100          1           0      -25.700849    3.999570    2.752732
    101          1           0      -27.389956    2.778978   -1.064224
    102          1           0      -22.036415   -2.134099   -0.629768
    103          1           0      -19.138238    0.844379    1.551931
    104          1           0      -19.811789   -1.952101   -1.710636
    105          1           0      -12.866846   -3.592384   -0.292418
    106          1           0      -11.794393    0.818755    0.881531
    107          1           0      -10.890264   -2.708786   -1.497463
    108          1           0       -4.922954    2.431999   -0.876640
    109          1           0       -2.928327    2.026770    0.538666
    110          1           0       -3.575815   -2.058949   -0.806159
    111          1           0        3.321940   -2.725545    1.400576
    112          1           0        5.330477   -2.602856   -0.041311
    113          1           0        4.429098    1.649394    0.122702
    114          1           0       11.351081    2.091718   -2.071270
    115          1           0       13.314230    2.486004   -0.608875
    116          1           0       12.639943   -1.698311    0.369493
    117          1           0       19.493100   -1.121771    2.739754
    118          1           0       20.674492    1.940640   -0.608504
    119          1           0       21.520200   -1.789652    1.462048
    120          1           0       28.365830    0.483291    0.497570
    121          1           0       28.171031    1.022216   -2.106769
 ---------------------------------------------------------------------

 Alpha virt. eigenvalues --    0.05931   0.06748   0.07485   0.08120   0.08649
 Alpha virt. eigenvalues --    0.08991   0.09840   0.10091   0.10210   0.10258
 Alpha virt. eigenvalues --    0.10281   0.10368   0.10963   0.12806   0.12909

  Beta  occ. eigenvalues --  -88.28548 -88.28544 -88.28513 -88.28493 -88.28344
  Beta  occ. eigenvalues --  -88.28328 -88.27682 -24.47011 -24.47005 -24.46982
  Beta  occ. eigenvalues --  -24.46920 -24.46889 -24.46670 -24.46659 -24.46644
  Beta  occ. eigenvalues --  -24.46617 -24.46548 -24.46548 -24.46497 -24.46343
  Beta  occ. eigenvalues --  -24.46342 -24.46319 -24.46303 -24.46231 -24.46214
  Beta  occ. eigenvalues --  -24.46158 -24.46109 -24.45617 -10.17576 -10.17565
  Beta  occ. eigenvalues --  -10.17548 -10.17514 -10.17503 -10.17489 -10.17488
  Beta  occ. eigenvalues --  -10.17455 -10.17435 -10.17394 -10.17090 -10.17037
  Beta  occ. eigenvalues --  -10.17022 -10.16965 -10.16351 -10.16347 -10.16314
  Beta  occ. eigenvalues --  -10.16305 -10.16152 -10.16100 -10.15505 -10.12615
  Beta  occ. eigenvalues --  -10.12609 -10.12581 -10.12558 -10.12406 -10.12377
  Beta  occ. eigenvalues --  -10.12013 -10.11997 -10.11992 -10.11987 -10.11982
  Beta  occ. eigenvalues --  -10.11952 -10.11935 -10.11908 -10.11907 -10.11771
  Beta  occ. eigenvalues --  -10.11739 -10.11601 -10.11290 -10.11280 -10.11262
  Beta  occ. eigenvalues --  -10.11207 -10.11167 -10.11076 -10.10868 -10.10835
  Beta  occ. eigenvalues --  -10.10780 -10.09832 -10.09290 -10.09276 -10.09267
  Beta  occ. eigenvalues --  -10.09238 -10.09222 -10.09218 -10.09189 -10.09189
  Beta  occ. eigenvalues --  -10.09138 -10.09135 -10.09131 -10.09125 -10.09108
  Beta  occ. eigenvalues --  -10.09073 -10.08949 -10.08899 -10.08872 -10.08837
  Beta  occ. eigenvalues --  -10.08713 -10.08657 -10.08256  -7.89077  -7.89073
  Beta  occ. eigenvalues --   -7.89042  -7.89022  -7.88875  -7.88857  -7.88221
  Beta  occ. eigenvalues --   -5.90932  -5.90928  -5.90897  -5.90878  -5.90730
  Beta  occ. eigenvalues --   -5.90713  -5.90431  -5.90427  -5.90396  -5.90376
  Beta  occ. eigenvalues --   -5.90229  -5.90212  -5.90070  -5.89983  -5.89978
  Beta  occ. eigenvalues --   -5.89948  -5.89928  -5.89781  -5.89762  -5.89565
  Beta  occ. eigenvalues --   -5.89144  -1.31357  -1.31349  -1.31329  -1.31272
  Beta  occ. eigenvalues --   -1.31234  -1.31216  -1.31207  -1.31187  -1.31153
  Beta  occ. eigenvalues --   -1.31086  -1.30867  -1.30855  -1.30773  -1.30713
  Beta  occ. eigenvalues --   -1.30523  -1.30523  -1.30490  -1.30486  -1.30344
  Beta  occ. eigenvalues --   -1.30236  -1.29787  -1.02094  -1.01983  -1.01851
  Beta  occ. eigenvalues --   -1.01708  -1.01561  -1.01514  -1.00428  -0.99627
  Beta  occ. eigenvalues --   -0.99355  -0.99033  -0.98691  -0.98368  -0.98061
  Beta  occ. eigenvalues --   -0.98002  -0.93084  -0.92636  -0.92043  -0.91348
  Beta  occ. eigenvalues --   -0.90597  -0.89878  -0.89308  -0.87280  -0.87253
  Beta  occ. eigenvalues --   -0.87219  -0.87158  -0.87121  -0.86899  -0.86675
  Beta  occ. eigenvalues --   -0.86370  -0.86053  -0.85650  -0.85578  -0.85557
  Beta  occ. eigenvalues --   -0.85253  -0.85157  -0.84948  -0.84579  -0.84294
  Beta  occ. eigenvalues --   -0.83487  -0.82498  -0.81536  -0.80846  -0.77909
  Beta  occ. eigenvalues --   -0.77071  -0.76189  -0.75463  -0.75136  -0.74952
  Beta  occ. eigenvalues --   -0.74521  -0.74397  -0.74279  -0.74071  -0.73965
  Beta  occ. eigenvalues --   -0.73874  -0.73573  -0.73349  -0.69728  -0.69592
  Beta  occ. eigenvalues --   -0.69509  -0.69489  -0.69323  -0.69299  -0.69143
  Beta  occ. eigenvalues --   -0.68867  -0.68735  -0.68671  -0.68578  -0.68552
  Beta  occ. eigenvalues --   -0.68383  -0.67713  -0.66874  -0.66802  -0.66624
  Beta  occ. eigenvalues --   -0.66286  -0.65853  -0.65441  -0.65090  -0.64803
  Beta  occ. eigenvalues --   -0.64022  -0.63876  -0.63713  -0.63557  -0.63407
  Beta  occ. eigenvalues --   -0.63350  -0.63180  -0.63011  -0.62862  -0.62784
  Beta  occ. eigenvalues --   -0.62742  -0.62614  -0.62530  -0.60447  -0.60403
  Beta  occ. eigenvalues --   -0.60376  -0.60317  -0.60275  -0.60024  -0.59408
  Beta  occ. eigenvalues --   -0.59238  -0.59223  -0.59070  -0.59013  -0.59007
  Beta  occ. eigenvalues --   -0.58920  -0.58886  -0.58813  -0.58571  -0.58528
  Beta  occ. eigenvalues --   -0.58455  -0.58279  -0.58081  -0.57974  -0.57292
  Beta  occ. eigenvalues --   -0.57250  -0.57206  -0.57186  -0.57076  -0.56961
  Beta  occ. eigenvalues --   -0.56759  -0.56706  -0.56646  -0.56617  -0.56587
  Beta  occ. eigenvalues --   -0.56530  -0.56320  -0.56097  -0.55710  -0.55665
  Beta  occ. eigenvalues --   -0.55610  -0.55534  -0.55436  -0.55278  -0.55259
  Beta  occ. eigenvalues --   -0.54735  -0.54672  -0.54635  -0.54594  -0.54523
  Beta  occ. eigenvalues --   -0.54329  -0.53999  -0.53741  -0.53533  -0.53333
  Beta  occ. eigenvalues --   -0.53021  -0.52741  -0.52611  -0.52345  -0.51717
  Beta  occ. eigenvalues --   -0.50917  -0.50793  -0.50682  -0.50589  -0.50530
  Beta  occ. eigenvalues --   -0.50370  -0.50029  -0.49950  -0.49855  -0.49780
  Beta  occ. eigenvalues --   -0.49748  -0.49588  -0.49480  -0.48830  -0.48571
  Beta  occ. eigenvalues --   -0.48390  -0.48219  -0.48150  -0.48026  -0.47972
  Beta  occ. eigenvalues --   -0.47784  -0.47746  -0.47678  -0.47646  -0.47560
  Beta  occ. eigenvalues --   -0.47444  -0.47259  -0.47245  -0.47024  -0.47000
  Beta  occ. eigenvalues --   -0.46828  -0.46749  -0.46549  -0.46449  -0.46348
  Beta  occ. eigenvalues --   -0.46319  -0.46230  -0.46091  -0.45993  -0.45914
  Beta  occ. eigenvalues --   -0.45650  -0.45593  -0.44974  -0.44918  -0.44830
  Beta  occ. eigenvalues --   -0.44717  -0.44618  -0.44586  -0.44269  -0.40885
  Beta  occ. eigenvalues --   -0.40452  -0.39861  -0.39147  -0.38342  -0.37500
  Beta  occ. eigenvalues --   -0.36778  -0.35540  -0.35426  -0.35403  -0.35381
  Beta  occ. eigenvalues --   -0.35300  -0.35273  -0.35202  -0.35119  -0.35094
  Beta  occ. eigenvalues --   -0.35039  -0.34986  -0.34867  -0.34736  -0.34486
  Beta  occ. eigenvalues --   -0.33819  -0.33224  -0.32348  -0.31376  -0.30472
  Beta  occ. eigenvalues --   -0.29753  -0.29341
  Beta virt. eigenvalues --   -0.02427  -0.01813  -0.00960   0.00052   0.01132
  Beta virt. eigenvalues --    0.02146   0.03916   0.04739   0.04871   0.04957
  Beta virt. eigenvalues --    0.05066   0.05177   0.05226   0.05478   0.05847

 Mulliken charges and spin densities:
               1          2
     1  C    0.037818   0.000000
     2  C    0.003514  -0.000000
     3  C    0.116543  -0.000000
     4  F   -0.116673   0.000000
     5  C   -0.072147   0.000000
     6  C    0.116022  -0.000000
     7  F   -0.111706   0.000000
     8  C    0.002502  -0.000000
     9  C   -0.178203  -0.000000
    10  C    0.153381   0.000000
    11  F   -0.110580  -0.000000
    12  C    0.023376  -0.000000
    13  C   -0.150425  -0.000000
    14  S    0.204624   0.000000
    15  C    0.073915  -0.000000
    16  C   -0.004571   0.000000
    17  C    0.122259   0.000000
    18  F   -0.112948  -0.000000
    19  C   -0.064146  -0.000000
    20  C    0.125532  -0.000000
    21  F   -0.108872   0.000000
    22  C   -0.007220   0.000000
    23  C   -0.181434  -0.000000
    24  C    0.150951   0.000000
    25  F   -0.110002  -0.000000
    26  C    0.024573  -0.000000
    27  C   -0.149951   0.000000
    28  S    0.207284   0.000000
    29  C    0.073115   0.000000
    30  C   -0.005432   0.000000
    31  C    0.121614  -0.000000
    32  F   -0.107731   0.000000
    33  C   -0.064089  -0.000000
    34  C    0.126411   0.000000
    35  F   -0.113412   0.000000
    36  C   -0.005824  -0.000000
    37  C   -0.181527   0.000000
    38  C    0.151283   0.000000
    39  F   -0.109526  -0.000000
    40  C    0.024589  -0.000000
    41  C   -0.149686   0.000000
    42  S    0.206784  -0.000000
    43  C    0.073099  -0.000000
    44  C   -0.005812   0.000000
    45  C    0.126616   0.000000
    46  F   -0.113279   0.000000
    47  C   -0.064180  -0.000000
    48  C    0.121633   0.000000
    49  F   -0.107710  -0.000000
    50  C   -0.005536  -0.000000
    51  C   -0.181713   0.000000
    52  C    0.151538  -0.000000
    53  F   -0.109571  -0.000000
    54  C    0.024579  -0.000000
    55  C   -0.149651   0.000000
    56  S    0.206678  -0.000000
    57  C    0.073330  -0.000000
    58  C   -0.005973  -0.000000
    59  C    0.126586   0.000000
    60  F   -0.113222  -0.000000
    61  C   -0.064215  -0.000000
    62  C    0.121766  -0.000000
    63  F   -0.107707  -0.000000
    64  C   -0.005704   0.000000
    65  C   -0.181790   0.000000
    66  C    0.151327  -0.000000
    67  F   -0.109715   0.000000
    68  C    0.024547   0.000000
    69  C   -0.149512  -0.000000
    70  S    0.206753   0.000000
    71  C    0.072910  -0.000000
    72  C   -0.006055  -0.000000
    73  C    0.126509   0.000000
    74  F   -0.113282  -0.000000
    75  C   -0.063831  -0.000000
    76  C    0.121589  -0.000000
    77  F   -0.107716   0.000000
    78  C   -0.005721   0.000000
    79  C   -0.182134   0.000000
    80  C    0.151222  -0.000000
    81  F   -0.110055  -0.000000
    82  C    0.024967   0.000000
    83  C   -0.148792  -0.000000
    84  S    0.204409  -0.000000
    85  C    0.071752  -0.000000
    86  C   -0.006307   0.000000
    87  C    0.123392   0.000000
    88  F   -0.112691  -0.000000
    89  C   -0.057313   0.000000
    90  C    0.126640   0.000000
    91  F   -0.109141  -0.000000
    92  C   -0.008515  -0.000000
    93  C   -0.190764  -0.000000
    94  C    0.134238   0.000000
    95  F   -0.114903  -0.000000
    96  C    0.043587  -0.000000
    97  C   -0.125995   0.000000
    98  S    0.194662   0.000000
    99  H    0.011583   0.000000
   100  H    0.012934  -0.000000
   101  H    0.013528   0.000000
   102  H    0.011806  -0.000000
   103  H    0.014099  -0.000000
   104  H    0.006588  -0.000000
   105  H    0.011722  -0.000000
   106  H    0.014566   0.000000
   107  H    0.006376  -0.000000
   108  H    0.011905  -0.000000
   109  H    0.006444  -0.000000
   110  H    0.014407  -0.000000
   111  H    0.012005  -0.000000
   112  H    0.006405   0.000000
   113  H    0.014318  -0.000000
   114  H    0.011822  -0.000000
   115  H    0.006123   0.000000
   116  H    0.014066   0.000000
   117  H    0.012333  -0.000000
   118  H    0.012638   0.000000
   119  H    0.005473   0.000000
   120  H    0.013279  -0.000000
   121  H    0.039768  -0.000000
 Sum of Mulliken charges =  -0.00000   0.00000

 Dipole moment (field-independent basis, Debye):
    X=             -3.1519    Y=              1.3819    Z=             -0.5964  Tot=              3.4929
 Quadrupole moment (field-independent basis, Debye-Ang):
   XX=           -443.6817   YY=           -573.7530   ZZ=           -587.4724
   XY=            -33.9174   XZ=            -30.5131   YZ=              0.1693

 Normal termination of Gaussian 16 at Fri Jul 24 00:15:42 2020.
