 Gaussian 16, Revision A.03,
 Gaussian 16:  EM64L-G16RevA.03 25-Dec-2016

 ---------------------------------------------------------------
 #P uLC-wPBE/cc-pVDZ iop(3/107=0061000000, 3/108=0061000000) opt
 ---------------------------------------------------------------

 ----------------
 H29 C33 S3 N3 O6
 ----------------
 Symbolic Z-matrix:
 Charge =  0 Multiplicity = 1

 SCF Done:  E(ULC-wPBE) =  -3082.63426108     A.U. after   19 cycles
 SCF Done:  E(ULC-wPBE) =  -3082.70315271     A.U. after   14 cycles
 SCF Done:  E(ULC-wPBE) =  -3082.74915066     A.U. after   15 cycles
 SCF Done:  E(ULC-wPBE) =  -3082.76362289     A.U. after   17 cycles
 SCF Done:  E(ULC-wPBE) =  -3082.77231276     A.U. after   15 cycles
 SCF Done:  E(ULC-wPBE) =  -3082.77725777     A.U. after   15 cycles
 SCF Done:  E(ULC-wPBE) =  -3082.78118815     A.U. after   15 cycles
 SCF Done:  E(ULC-wPBE) =  -3082.78387230     A.U. after   15 cycles
 SCF Done:  E(ULC-wPBE) =  -3082.78419714     A.U. after   16 cycles
 SCF Done:  E(ULC-wPBE) =  -3082.78522207     A.U. after   14 cycles
 SCF Done:  E(ULC-wPBE) =  -3082.78560912     A.U. after   14 cycles
 SCF Done:  E(ULC-wPBE) =  -3082.78566269     A.U. after   14 cycles
 SCF Done:  E(ULC-wPBE) =  -3082.78567854     A.U. after   11 cycles
 SCF Done:  E(ULC-wPBE) =  -3082.78568280     A.U. after   11 cycles
 SCF Done:  E(ULC-wPBE) =  -3082.78568468     A.U. after    9 cycles
 SCF Done:  E(ULC-wPBE) =  -3082.78568509     A.U. after    7 cycles
 SCF Done:  E(ULC-wPBE) =  -3082.78568537     A.U. after    7 cycles
 SCF Done:  E(ULC-wPBE) =  -3082.78568544     A.U. after    7 cycles
 SCF Done:  E(ULC-wPBE) =  -3082.78568553     A.U. after    7 cycles
 SCF Done:  E(ULC-wPBE) =  -3082.78568554     A.U. after    6 cycles
 Optimization completed.
    -- Stationary point found.

                         Standard orientation:
 ---------------------------------------------------------------------
 Center     Atomic      Atomic             Coordinates (Angstroms)
 Number     Number       Type             X           Y           Z
 ---------------------------------------------------------------------
      1          6           0      -11.224237    0.924177   -0.196104
      2          6           0      -10.121555    1.688447   -0.594878
      3          7           0       -8.861519    1.224934   -0.580928
      4          6           0       -8.622420   -0.036651   -0.148950
      5          6           0       -9.678016   -0.850039    0.374053
      6          8           0       -9.320612   -2.030977    0.949575
      7          6           0      -10.359834   -2.869913    1.442304
      8          6           0      -10.994784   -0.364905    0.307757
      9          6           0       -7.218675   -0.450415   -0.180717
     10          6           0       -6.577294   -1.685060   -0.376127
     11          8           0       -7.293953   -2.819180   -0.620226
     12          6           0       -6.545261   -4.018322   -0.799589
     13          6           0       -5.153377   -1.589575   -0.372209
     14          6           0       -4.688765   -0.288041   -0.207477
     15         16           0       -6.024324    0.833162   -0.062693
     16          6           0       -3.304271    0.176899   -0.161253
     17          6           0       -2.238587   -0.704686    0.134270
     18          7           0       -0.960063   -0.327968    0.227540
     19          6           0       -0.621517    0.971099    0.032094
     20          6           0       -1.614033    1.925559   -0.362128
     21          8           0       -1.173275    3.164351   -0.712396
     22          6           0       -2.147682    4.137408   -1.077849
     23          6           0       -2.952832    1.521209   -0.425325
     24          6           0        0.800746    1.271689    0.166449
     25          6           0        1.520025    2.412009    0.566707
     26          8           0        0.876408    3.544920    0.966660
     27          6           0        1.699435    4.643384    1.349774
     28          6           0        2.932636    2.213081    0.584486
     29          6           0        3.312909    0.921106    0.232944
     30         16           0        1.909338   -0.064470   -0.117792
     31          6           0        4.663376    0.372006    0.150720
     32          6           0        5.796248    1.206030    0.009877
     33          7           0        7.055600    0.767488   -0.058425
     34          6           0        7.314429   -0.560967   -0.006027
     35          6           0        6.228265   -1.492087    0.113195
     36          8           0        6.560354   -2.817715    0.151204
     37          6           0        5.510945   -3.777883    0.264485
     38          6           0        4.917625   -1.018723    0.198023
     39          6           0        8.718090   -0.964940   -0.076571
     40          6           0        9.853482   -0.128271   -0.172870
     41          8           0        9.736927    1.226313   -0.204091
     42          6           0       10.949589    1.967868   -0.303965
     43          6           0       11.090313   -0.846564   -0.229004
     44          6           0       10.909135   -2.212511   -0.176367
     45         16           0        9.244293   -2.653904   -0.057327
     46          1           0      -12.244305    1.329520   -0.255247
     47          1           0      -10.250443    2.723210   -0.952584
     48          1           0      -10.938603   -2.378357    2.255941
     49          1           0       -9.855414   -3.766279    1.845532
     50          1           0      -11.060578   -3.175916    0.634111
     51          1           0      -11.833933   -0.971854    0.671602
     52          1           0       -5.935966   -4.263489    0.098488
     53          1           0       -7.290000   -4.818424   -0.963005
     54          1           0       -5.875159   -3.959010   -1.686029
     55          1           0       -4.481532   -2.439119   -0.537260
     56          1           0       -2.438814   -1.770057    0.333270
     57          1           0       -2.715794    3.833479   -1.984973
     58          1           0       -1.580925    5.060379   -1.295124
     59          1           0       -2.865089    4.332078   -0.250478
     60          1           0       -3.733594    2.230949   -0.730066
     61          1           0        2.356670    4.977525    0.516587
     62          1           0        2.330880    4.398835    2.232805
     63          1           0        1.006230    5.461670    1.616802
     64          1           0        3.655465    2.974611    0.897344
     65          1           0        5.667707    2.298396   -0.072435
     66          1           0        4.942944   -3.650811    1.211812
     67          1           0        6.007115   -4.764678    0.263177
     68          1           0        4.807449   -3.715240   -0.594099
     69          1           0        4.080454   -1.718564    0.322687
     70          1           0       11.619475    1.787944    0.566489
     71          1           0       11.503288    1.734046   -1.240664
     72          1           0       10.649210    3.031214   -0.316507
     73          1           0       12.075978   -0.374486   -0.304627
     74          1           0       11.678788   -2.991571   -0.200036
 ---------------------------------------------------------------------

 The electronic state is 1-A.
 Alpha  occ. eigenvalues --  -88.12508 -88.12471 -88.12243 -18.84376 -18.83974
 Alpha  occ. eigenvalues --  -18.83641 -18.83405 -18.83212 -18.82696 -14.02336
 Alpha  occ. eigenvalues --  -14.02295 -14.01476  -9.99677  -9.99446  -9.99353
 Alpha  occ. eigenvalues --   -9.99336  -9.99265  -9.99123  -9.98949  -9.98932
 Alpha  occ. eigenvalues --   -9.98884  -9.98715  -9.98652  -9.98226  -9.97367
 Alpha  occ. eigenvalues --   -9.97064  -9.97054  -9.96433  -9.96240  -9.95468
 Alpha  occ. eigenvalues --   -9.95450  -9.95345  -9.95311  -9.95216  -9.95204
 Alpha  occ. eigenvalues --   -9.95125  -9.95098  -9.94757  -9.94621  -9.94158
 Alpha  occ. eigenvalues --   -9.94052  -9.93940  -9.93462  -9.93261  -9.93233
 Alpha  occ. eigenvalues --   -7.72660  -7.72660  -7.72432  -5.74776  -5.74771
 Alpha  occ. eigenvalues --   -5.74546  -5.74335  -5.74318  -5.74110  -5.73926
 Alpha  occ. eigenvalues --   -5.73905  -5.73673  -1.02034  -1.02034  -1.01718
 Alpha  occ. eigenvalues --   -1.01136  -1.00938  -1.00621  -0.88693  -0.88620
 Alpha  occ. eigenvalues --   -0.88163  -0.83256  -0.82853  -0.82348  -0.76898
 Alpha  occ. eigenvalues --   -0.76201  -0.75566  -0.74452  -0.74125  -0.73380
 Alpha  occ. eigenvalues --   -0.71030  -0.70734  -0.70337  -0.69859  -0.69138
 Alpha  occ. eigenvalues --   -0.68572  -0.67277  -0.67009  -0.66633  -0.65539
 Alpha  occ. eigenvalues --   -0.64985  -0.63631  -0.61875  -0.59897  -0.58599
 Alpha  occ. eigenvalues --   -0.58447  -0.58074  -0.57843  -0.54415  -0.54054
 Alpha  occ. eigenvalues --   -0.53476  -0.53370  -0.53149  -0.52387  -0.52209
 Alpha  occ. eigenvalues --   -0.51581  -0.50826  -0.50091  -0.49340  -0.49004
 Alpha  occ. eigenvalues --   -0.48082  -0.47997  -0.47825  -0.45520  -0.45418
 Alpha  occ. eigenvalues --   -0.45367  -0.45102  -0.45008  -0.44874  -0.44752
 Alpha  occ. eigenvalues --   -0.44574  -0.44188  -0.43672  -0.43557  -0.42929
 Alpha  occ. eigenvalues --   -0.42166  -0.41860  -0.41665  -0.41391  -0.41224
 Alpha  occ. eigenvalues --   -0.40925  -0.40618  -0.39939  -0.39670  -0.39456
 Alpha  occ. eigenvalues --   -0.39088  -0.39034  -0.38927  -0.37799  -0.37509
 Alpha  occ. eigenvalues --   -0.37479  -0.37045  -0.36922  -0.36689  -0.36475
 Alpha  occ. eigenvalues --   -0.36407  -0.36068  -0.34168  -0.33378  -0.33288
 Alpha  occ. eigenvalues --   -0.33205  -0.33023  -0.32856  -0.32798  -0.32604
 Alpha  occ. eigenvalues --   -0.32138  -0.31793  -0.31507  -0.31126  -0.31061
 Alpha  occ. eigenvalues --   -0.30752  -0.30669  -0.29474  -0.28583  -0.27548
 Alpha  occ. eigenvalues --   -0.24983  -0.24889  -0.24854  -0.24186  -0.23928
 Alpha  occ. eigenvalues --   -0.23303  -0.22987  -0.22736  -0.22639  -0.21188
 Alpha  occ. eigenvalues --   -0.19874  -0.18217
 Alpha virt. eigenvalues --   -0.05604  -0.03639  -0.01713  -0.00391  -0.00076
 Alpha virt. eigenvalues --    0.00169   0.00778   0.02944   0.04137   0.04422
 Alpha virt. eigenvalues --    0.04783   0.04951   0.06356   0.06853   0.07260

  Beta  occ. eigenvalues --  -88.12508 -88.12471 -88.12243 -18.84376 -18.83974
  Beta  occ. eigenvalues --  -18.83641 -18.83405 -18.83212 -18.82696 -14.02336
  Beta  occ. eigenvalues --  -14.02295 -14.01476  -9.99677  -9.99446  -9.99353
  Beta  occ. eigenvalues --   -9.99336  -9.99265  -9.99123  -9.98949  -9.98932
  Beta  occ. eigenvalues --   -9.98884  -9.98715  -9.98652  -9.98226  -9.97367
  Beta  occ. eigenvalues --   -9.97064  -9.97054  -9.96433  -9.96240  -9.95468
  Beta  occ. eigenvalues --   -9.95450  -9.95345  -9.95311  -9.95216  -9.95204
  Beta  occ. eigenvalues --   -9.95125  -9.95098  -9.94757  -9.94621  -9.94158
  Beta  occ. eigenvalues --   -9.94052  -9.93940  -9.93462  -9.93261  -9.93233
  Beta  occ. eigenvalues --   -7.72660  -7.72660  -7.72432  -5.74776  -5.74771
  Beta  occ. eigenvalues --   -5.74546  -5.74335  -5.74318  -5.74110  -5.73926
  Beta  occ. eigenvalues --   -5.73905  -5.73673  -1.02034  -1.02034  -1.01718
  Beta  occ. eigenvalues --   -1.01136  -1.00938  -1.00621  -0.88693  -0.88620
  Beta  occ. eigenvalues --   -0.88163  -0.83256  -0.82853  -0.82348  -0.76898
  Beta  occ. eigenvalues --   -0.76201  -0.75566  -0.74452  -0.74125  -0.73380
  Beta  occ. eigenvalues --   -0.71030  -0.70734  -0.70337  -0.69859  -0.69138
  Beta  occ. eigenvalues --   -0.68572  -0.67277  -0.67009  -0.66633  -0.65539
  Beta  occ. eigenvalues --   -0.64985  -0.63631  -0.61875  -0.59897  -0.58599
  Beta  occ. eigenvalues --   -0.58447  -0.58074  -0.57843  -0.54415  -0.54054
  Beta  occ. eigenvalues --   -0.53476  -0.53370  -0.53149  -0.52387  -0.52209
  Beta  occ. eigenvalues --   -0.51581  -0.50826  -0.50091  -0.49340  -0.49004
  Beta  occ. eigenvalues --   -0.48082  -0.47997  -0.47825  -0.45520  -0.45418
  Beta  occ. eigenvalues --   -0.45367  -0.45102  -0.45008  -0.44874  -0.44752
  Beta  occ. eigenvalues --   -0.44574  -0.44188  -0.43672  -0.43557  -0.42929
  Beta  occ. eigenvalues --   -0.42166  -0.41860  -0.41665  -0.41391  -0.41224
  Beta  occ. eigenvalues --   -0.40925  -0.40618  -0.39939  -0.39670  -0.39456
  Beta  occ. eigenvalues --   -0.39088  -0.39034  -0.38927  -0.37799  -0.37509
  Beta  occ. eigenvalues --   -0.37479  -0.37045  -0.36922  -0.36689  -0.36475
  Beta  occ. eigenvalues --   -0.36407  -0.36068  -0.34168  -0.33378  -0.33288
  Beta  occ. eigenvalues --   -0.33205  -0.33023  -0.32856  -0.32798  -0.32604
  Beta  occ. eigenvalues --   -0.32138  -0.31793  -0.31507  -0.31126  -0.31061
  Beta  occ. eigenvalues --   -0.30752  -0.30669  -0.29474  -0.28583  -0.27548
  Beta  occ. eigenvalues --   -0.24983  -0.24889  -0.24854  -0.24186  -0.23928
  Beta  occ. eigenvalues --   -0.23303  -0.22987  -0.22736  -0.22639  -0.21188
  Beta  occ. eigenvalues --   -0.19874  -0.18217
  Beta virt. eigenvalues --   -0.05604  -0.03639  -0.01713  -0.00391  -0.00076
  Beta virt. eigenvalues --    0.00169   0.00778   0.02944   0.04137   0.04422
  Beta virt. eigenvalues --    0.04783   0.04951   0.06356   0.06853   0.07260

 Mulliken charges and spin densities:
               1          2
     1  C   -0.023136  -0.000000
     2  C    0.081448   0.000000
     3  N   -0.206443   0.000000
     4  C    0.085845  -0.000000
     5  C    0.098555   0.000000
     6  O   -0.214506   0.000000
     7  C    0.061233   0.000000
     8  C    0.023186   0.000000
     9  C   -0.133763   0.000000
    10  C    0.129941  -0.000000
    11  O   -0.224272   0.000000
    12  C    0.062868  -0.000000
    13  C   -0.003726   0.000000
    14  C   -0.149858  -0.000000
    15  S    0.161263  -0.000000
    16  C    0.027202   0.000000
    17  C    0.067758  -0.000000
    18  N   -0.206612  -0.000000
    19  C    0.095920   0.000000
    20  C    0.105036  -0.000000
    21  O   -0.217977   0.000000
    22  C    0.062671   0.000000
    23  C    0.010234  -0.000000
    24  C   -0.134909  -0.000000
    25  C    0.123849   0.000000
    26  O   -0.222389   0.000000
    27  C    0.062877   0.000000
    28  C   -0.002459  -0.000000
    29  C   -0.147514   0.000000
    30  S    0.156493   0.000000
    31  C    0.028967  -0.000000
    32  C    0.057117   0.000000
    33  N   -0.185578  -0.000000
    34  C    0.087102   0.000000
    35  C    0.124324  -0.000000
    36  O   -0.250645  -0.000000
    37  C    0.067265  -0.000000
    38  C    0.007564  -0.000000
    39  C   -0.166913   0.000000
    40  C    0.143080  -0.000000
    41  O   -0.197318   0.000000
    42  C    0.060217  -0.000000
    43  C    0.030132   0.000000
    44  C   -0.122608  -0.000000
    45  S    0.148906   0.000000
    46  H   -0.022332  -0.000000
    47  H   -0.008516  -0.000000
    48  H    0.043355  -0.000000
    49  H    0.047899  -0.000000
    50  H    0.043438  -0.000000
    51  H   -0.017576   0.000000
    52  H    0.041709   0.000000
    53  H    0.042764  -0.000000
    54  H    0.044376   0.000000
    55  H   -0.022147   0.000000
    56  H   -0.017602  -0.000000
    57  H    0.047528  -0.000000
    58  H    0.045755  -0.000000
    59  H    0.046614  -0.000000
    60  H   -0.016142  -0.000000
    61  H    0.041741   0.000000
    62  H    0.044260  -0.000000
    63  H    0.043393   0.000000
    64  H   -0.022091   0.000000
    65  H   -0.019101   0.000000
    66  H    0.050859  -0.000000
    67  H    0.050860  -0.000000
    68  H    0.049996   0.000000
    69  H   -0.018460   0.000000
    70  H    0.038622   0.000000
    71  H    0.039132  -0.000000
    72  H    0.047705  -0.000000
    73  H   -0.020072   0.000000
    74  H    0.013610  -0.000000
 Sum of Mulliken charges =  -0.00000  -0.00000

 Dipole moment (field-independent basis, Debye):
    X=             -2.0841    Y=             -1.2465    Z=              0.7522  Tot=              2.5423
 Quadrupole moment (field-independent basis, Debye-Ang):
   XX=           -209.5692   YY=           -225.2296   ZZ=           -284.6077
   XY=             25.8313   XZ=             -7.0469   YZ=             -1.1399

 Normal termination of Gaussian 16 at Thu Jul 23 17:40:09 2020.
