 Gaussian 16, Revision A.03,
 Gaussian 16:  EM64L-G16RevA.03 25-Dec-2016

 ---------------------------------------------------------------
 #P uLC-wPBE/cc-pVDZ iop(3/107=0156700000, 3/108=0156700000) opt
 ---------------------------------------------------------------

 --------------
 H5 C9 S1 N1 F2
 --------------
 Symbolic Z-matrix:
 Charge =  0 Multiplicity = 1

 SCF Done:  E(ULC-wPBE) =  -997.924508117     A.U. after   16 cycles
 SCF Done:  E(ULC-wPBE) =  -997.947819567     A.U. after   14 cycles
 SCF Done:  E(ULC-wPBE) =  -997.950898639     A.U. after   14 cycles
 SCF Done:  E(ULC-wPBE) =  -997.951900952     A.U. after   14 cycles
 SCF Done:  E(ULC-wPBE) =  -997.952001032     A.U. after   12 cycles
 SCF Done:  E(ULC-wPBE) =  -997.952018822     A.U. after   12 cycles
 SCF Done:  E(ULC-wPBE) =  -997.952031389     A.U. after   10 cycles
 SCF Done:  E(ULC-wPBE) =  -997.952031844     A.U. after    8 cycles
 SCF Done:  E(ULC-wPBE) =  -997.952031898     A.U. after    8 cycles
 SCF Done:  E(ULC-wPBE) =  -997.952031872     A.U. after    8 cycles
 SCF Done:  E(ULC-wPBE) =  -997.952032074     A.U. after    9 cycles
 SCF Done:  E(ULC-wPBE) =  -997.952032158     A.U. after   10 cycles
 SCF Done:  E(ULC-wPBE) =  -997.952032339     A.U. after   11 cycles
 SCF Done:  E(ULC-wPBE) =  -997.952032859     A.U. after   11 cycles
 SCF Done:  E(ULC-wPBE) =  -997.952033106     A.U. after   11 cycles
 SCF Done:  E(ULC-wPBE) =  -997.952033200     A.U. after    9 cycles
 SCF Done:  E(ULC-wPBE) =  -997.952033153     A.U. after    8 cycles
 Optimization completed.
    -- Stationary point found.

                         Standard orientation:
 ---------------------------------------------------------------------
 Center     Atomic      Atomic             Coordinates (Angstroms)
 Number     Number       Type             X           Y           Z
 ---------------------------------------------------------------------
      1          6           0       -3.384842   -0.204972    0.000030
      2          6           0       -2.807362    1.067884   -0.000190
      3          6           0       -1.417309    1.197140   -0.000193
      4          9           0       -0.917089    2.443205   -0.000430
      5          6           0       -0.540886    0.083007    0.000040
      6          6           0       -1.187798   -1.171689    0.000235
      7          9           0       -0.420172   -2.292487    0.000363
      8          6           0       -2.569661   -1.341060    0.000218
      9          6           0        0.925002    0.233345    0.000144
     10          7           0        1.541450    1.398153    0.000711
     11          6           0        2.901831    1.241113    0.000556
     12          6           0        3.361106   -0.055665   -0.000102
     13         16           0        2.030957   -1.154036   -0.000593
     14          1           0       -4.477286   -0.312773    0.000048
     15          1           0       -3.412109    1.982868   -0.000372
     16          1           0       -2.977145   -2.358988    0.000359
     17          1           0        3.541684    2.132264    0.001001
     18          1           0        4.394263   -0.416956   -0.000360
 ---------------------------------------------------------------------

 The electronic state is 1-A.
 Alpha  occ. eigenvalues --  -88.19604 -24.39394 -24.37880 -14.08748 -10.08840
 Alpha  occ. eigenvalues --  -10.08651 -10.05977 -10.02889 -10.01946 -10.01764
 Alpha  occ. eigenvalues --  -10.01630 -10.00764 -10.00542  -7.79909  -5.81931
 Alpha  occ. eigenvalues --   -5.81488  -5.81171  -1.22763  -1.21725  -0.97268
 Alpha  occ. eigenvalues --   -0.89372  -0.81940  -0.81437  -0.78066  -0.75075
 Alpha  occ. eigenvalues --   -0.67408  -0.66315  -0.62502  -0.60585  -0.58510
 Alpha  occ. eigenvalues --   -0.55240  -0.54311  -0.52769  -0.51982  -0.51394
 Alpha  occ. eigenvalues --   -0.49101  -0.47424  -0.47290  -0.45599  -0.45503
 Alpha  occ. eigenvalues --   -0.43184  -0.41773  -0.40668  -0.40160  -0.39250
 Alpha  occ. eigenvalues --   -0.35009  -0.32956  -0.30781  -0.30423  -0.27794
 Alpha virt. eigenvalues --   -0.01722   0.02985   0.05127   0.07440   0.09510
 Alpha virt. eigenvalues --    0.10115   0.12696   0.14313   0.15875   0.16083
 Alpha virt. eigenvalues --    0.17786   0.18413   0.19199   0.21223   0.24866

  Beta  occ. eigenvalues --  -88.19604 -24.39394 -24.37880 -14.08748 -10.08840
  Beta  occ. eigenvalues --  -10.08651 -10.05977 -10.02889 -10.01946 -10.01764
  Beta  occ. eigenvalues --  -10.01630 -10.00764 -10.00542  -7.79909  -5.81931
  Beta  occ. eigenvalues --   -5.81488  -5.81171  -1.22763  -1.21725  -0.97268
  Beta  occ. eigenvalues --   -0.89372  -0.81940  -0.81437  -0.78066  -0.75075
  Beta  occ. eigenvalues --   -0.67408  -0.66315  -0.62502  -0.60585  -0.58510
  Beta  occ. eigenvalues --   -0.55240  -0.54311  -0.52769  -0.51982  -0.51394
  Beta  occ. eigenvalues --   -0.49101  -0.47424  -0.47290  -0.45599  -0.45503
  Beta  occ. eigenvalues --   -0.43184  -0.41773  -0.40668  -0.40160  -0.39250
  Beta  occ. eigenvalues --   -0.35009  -0.32956  -0.30781  -0.30423  -0.27794
  Beta virt. eigenvalues --   -0.01722   0.02985   0.05127   0.07440   0.09510
  Beta virt. eigenvalues --    0.10115   0.12696   0.14313   0.15875   0.16083
  Beta virt. eigenvalues --    0.17786   0.18413   0.19199   0.21223   0.24866

 Mulliken charges and spin densities:
               1          2
     1  C    0.046708  -0.000000
     2  C    0.020785   0.000000
     3  C    0.097986   0.000000
     4  F   -0.092173  -0.000000
     5  C   -0.005181  -0.000000
     6  C    0.076275   0.000000
     7  F   -0.124292  -0.000000
     8  C    0.029650  -0.000000
     9  C   -0.018270  -0.000000
    10  N   -0.171052  -0.000000
    11  C    0.123054  -0.000000
    12  C   -0.164634   0.000000
    13  S    0.155612  -0.000000
    14  H   -0.002692  -0.000000
    15  H   -0.000165   0.000000
    16  H    0.000291   0.000000
    17  H    0.002008   0.000000
    18  H    0.026091  -0.000000
 Sum of Mulliken charges =  -0.00000   0.00000

 Dipole moment (field-independent basis, Debye):
    X=             -0.8406    Y=             -1.0502    Z=             -0.0006  Tot=              1.3452
 Quadrupole moment (field-independent basis, Debye-Ang):
   XX=            -60.6179   YY=            -80.2963   ZZ=            -81.6831
   XY=              0.5031   XZ=             -0.0006   YZ=             -0.0002

 Normal termination of Gaussian 16 at Sat Jul 25 12:48:57 2020.
