 Gaussian 16, Revision A.03,
 Gaussian 16:  EM64L-G16RevA.03 25-Dec-2016

 ---------------------------------------------------------------
 #P uLC-wPBE/cc-pVDZ iop(3/107=0187400000, 3/108=0187400000) opt
 ---------------------------------------------------------------

 ----------
 H23 C36 F3
 ----------
 Symbolic Z-matrix:
 Charge =  0 Multiplicity = 1

 SCF Done:  E(ULC-wPBE) =  -1683.70247773     A.U. after   16 cycles
 SCF Done:  E(ULC-wPBE) =  -1683.76509478     A.U. after   14 cycles
 SCF Done:  E(ULC-wPBE) =  -1683.80531333     A.U. after   17 cycles
 SCF Done:  E(ULC-wPBE) =  -1683.80729492     A.U. after   14 cycles
 SCF Done:  E(ULC-wPBE) =  -1683.80782749     A.U. after   13 cycles
 SCF Done:  E(ULC-wPBE) =  -1683.80804177     A.U. after   14 cycles
 SCF Done:  E(ULC-wPBE) =  -1683.80807382     A.U. after   12 cycles
 SCF Done:  E(ULC-wPBE) =  -1683.80808531     A.U. after   12 cycles
 SCF Done:  E(ULC-wPBE) =  -1683.80808586     A.U. after    8 cycles
 SCF Done:  E(ULC-wPBE) =  -1683.80808613     A.U. after    8 cycles
 SCF Done:  E(ULC-wPBE) =  -1683.80808616     A.U. after    6 cycles
 Optimization completed.
    -- Stationary point found.

                         Standard orientation:
 ---------------------------------------------------------------------
 Center     Atomic      Atomic             Coordinates (Angstroms)
 Number     Number       Type             X           Y           Z
 ---------------------------------------------------------------------
      1          6           0      -12.341477   -0.265877   -0.058099
      2          6           0      -11.616809   -0.864507    0.978771
      3          6           0      -10.219105   -0.813596    0.979452
      4          6           0       -9.519233   -0.164724   -0.055756
      5          6           0      -10.259855    0.439958   -1.089832
      6          6           0      -11.656995    0.386185   -1.090803
      7          6           0       -8.030657   -0.152497   -0.053013
      8          6           0       -7.287410   -1.296779    0.295354
      9          6           0       -5.891394   -1.296445    0.317663
     10          6           0       -5.165121   -0.135930   -0.009612
     11          6           0       -5.888368    1.017332   -0.359568
     12          6           0       -7.280118    0.990045   -0.376561
     13          9           0       -7.925478    2.133257   -0.723133
     14          6           0       -3.677260   -0.123182    0.010030
     15          6           0       -2.965661    0.989708    0.495946
     16          6           0       -1.569930    1.002181    0.519454
     17          6           0       -0.829555   -0.099479    0.049703
     18          6           0       -1.540658   -1.214143   -0.432790
     19          6           0       -2.936944   -1.226474   -0.452530
     20          6           0        0.657733   -0.095048    0.029564
     21          6           0        1.379385   -0.614871   -1.062710
     22          6           0        2.775048   -0.634028   -1.087854
     23          6           0        3.523289   -0.128437   -0.007853
     24          6           0        2.821736    0.396637    1.091201
     25          6           0        1.429810    0.405992    1.091004
     26          9           0        0.805678    0.908637    2.187109
     27          6           0        5.011071   -0.141808   -0.023746
     28          6           0        5.719675   -1.235728   -0.553262
     29          6           0        7.116095   -1.248296   -0.567459
     30          6           0        7.858452   -0.168793   -0.053678
     31          6           0        7.149990    0.929468    0.469525
     32          6           0        5.754099    0.939257    0.486236
     33          6           0        9.346125   -0.218837   -0.047195
     34          6           0       10.035220   -1.398215    0.298175
     35          6           0       11.431729   -1.464352    0.292103
     36          6           0       12.182906   -0.338610   -0.065617
     37          6           0       11.531079    0.848512   -0.413451
     38          6           0       10.137919    0.888347   -0.396925
     39          9           0        9.533324    2.052318   -0.747765
     40          1           0      -13.439106   -0.304295   -0.059845
     41          1           0      -12.143072   -1.370514    1.799472
     42          1           0       -9.658042   -1.267999    1.807559
     43          1           0       -9.733456    0.950661   -1.905197
     44          1           0      -12.216591    0.858334   -1.909643
     45          1           0       -7.831427   -2.217647    0.544849
     46          1           0       -5.355220   -2.207716    0.612629
     47          1           0       -5.382159    1.948613   -0.642822
     48          1           0       -3.516825    1.857077    0.884008
     49          1           0       -1.045017    1.882497    0.909075
     50          1           0       -0.988935   -2.094536   -0.789475
     51          1           0       -3.463271   -2.104122   -0.851498
     52          1           0        0.818906   -0.988463   -1.930144
     53          1           0        3.294170   -1.017865   -1.975547
     54          1           0        3.344920    0.778449    1.976755
     55          1           0        5.168204   -2.101018   -0.945232
     56          1           0        7.643197   -2.110946   -0.997226
     57          1           0        7.700283    1.789496    0.869393
     58          1           0        5.228139    1.817057    0.885643
     59          1           0        9.448744   -2.277081    0.598267
     60          1           0       11.934847   -2.397979    0.574890
     61          1           0       13.280011   -0.379554   -0.072126
     62          1           0       12.081120    1.751841   -0.704886
 ---------------------------------------------------------------------

 The electronic state is 1-A.
 Alpha  occ. eigenvalues --  -24.39294 -24.39285 -24.39047 -10.09043 -10.09037
 Alpha  occ. eigenvalues --  -10.08810 -10.02991 -10.02852 -10.02798 -10.02777
 Alpha  occ. eigenvalues --  -10.02652 -10.02575 -10.02515 -10.02476 -10.02366
 Alpha  occ. eigenvalues --  -10.02196 -10.02116 -10.02044 -10.02043 -10.01820
 Alpha  occ. eigenvalues --  -10.01817 -10.01709 -10.01567 -10.01520 -10.01517
 Alpha  occ. eigenvalues --  -10.01515 -10.01477 -10.01450 -10.01435 -10.01408
 Alpha  occ. eigenvalues --  -10.01376 -10.01323 -10.01280 -10.01258 -10.01026
 Alpha  occ. eigenvalues --  -10.00978 -10.00930 -10.00891 -10.00841  -1.22789
 Alpha  occ. eigenvalues --   -1.22781  -1.22545  -0.91561  -0.91128  -0.90601
 Alpha  occ. eigenvalues --   -0.89655  -0.88801  -0.88089  -0.84400  -0.82872
 Alpha  occ. eigenvalues --   -0.81075  -0.79460  -0.79257  -0.78987  -0.78783
 Alpha  occ. eigenvalues --   -0.78598  -0.78459  -0.78161  -0.76612  -0.74692
 Alpha  occ. eigenvalues --   -0.69872  -0.68118  -0.67792  -0.67203  -0.66759
 Alpha  occ. eigenvalues --   -0.65616  -0.65247  -0.64432  -0.63899  -0.63749
 Alpha  occ. eigenvalues --   -0.63040  -0.62655  -0.59579  -0.59238  -0.58854
 Alpha  occ. eigenvalues --   -0.57037  -0.56074  -0.55597  -0.55001  -0.54352
 Alpha  occ. eigenvalues --   -0.53817  -0.53510  -0.53058  -0.52080  -0.51418
 Alpha  occ. eigenvalues --   -0.51342  -0.51137  -0.50884  -0.50169  -0.49922
 Alpha  occ. eigenvalues --   -0.49614  -0.49297  -0.49033  -0.48877  -0.48662
 Alpha  occ. eigenvalues --   -0.48434  -0.47636  -0.47167  -0.46988  -0.46717
 Alpha  occ. eigenvalues --   -0.45909  -0.44986  -0.44911  -0.44448  -0.44190
 Alpha  occ. eigenvalues --   -0.43777  -0.43397  -0.43117  -0.42558  -0.42414
 Alpha  occ. eigenvalues --   -0.42287  -0.41865  -0.41635  -0.41212  -0.40544
 Alpha  occ. eigenvalues --   -0.39849  -0.39482  -0.39165  -0.38998  -0.38508
 Alpha  occ. eigenvalues --   -0.38127  -0.36193  -0.34848  -0.33235  -0.32260
 Alpha  occ. eigenvalues --   -0.32161  -0.31769  -0.31652  -0.31566  -0.31400
 Alpha  occ. eigenvalues --   -0.30545  -0.28767  -0.27246
 Alpha virt. eigenvalues --   -0.01225   0.00596   0.02853   0.03663   0.03775
 Alpha virt. eigenvalues --    0.04056   0.04104   0.04236   0.04444   0.05206
 Alpha virt. eigenvalues --    0.07352   0.08947   0.11538   0.12166   0.12542

  Beta  occ. eigenvalues --  -24.39294 -24.39285 -24.39047 -10.09043 -10.09037
  Beta  occ. eigenvalues --  -10.08810 -10.02991 -10.02852 -10.02798 -10.02777
  Beta  occ. eigenvalues --  -10.02652 -10.02575 -10.02515 -10.02476 -10.02366
  Beta  occ. eigenvalues --  -10.02196 -10.02116 -10.02044 -10.02043 -10.01820
  Beta  occ. eigenvalues --  -10.01817 -10.01709 -10.01567 -10.01520 -10.01517
  Beta  occ. eigenvalues --  -10.01515 -10.01477 -10.01450 -10.01435 -10.01408
  Beta  occ. eigenvalues --  -10.01376 -10.01323 -10.01280 -10.01258 -10.01026
  Beta  occ. eigenvalues --  -10.00978 -10.00930 -10.00891 -10.00841  -1.22789
  Beta  occ. eigenvalues --   -1.22781  -1.22545  -0.91561  -0.91128  -0.90601
  Beta  occ. eigenvalues --   -0.89655  -0.88801  -0.88089  -0.84400  -0.82872
  Beta  occ. eigenvalues --   -0.81075  -0.79460  -0.79257  -0.78987  -0.78783
  Beta  occ. eigenvalues --   -0.78598  -0.78459  -0.78161  -0.76612  -0.74692
  Beta  occ. eigenvalues --   -0.69872  -0.68118  -0.67792  -0.67203  -0.66759
  Beta  occ. eigenvalues --   -0.65616  -0.65247  -0.64432  -0.63899  -0.63749
  Beta  occ. eigenvalues --   -0.63040  -0.62655  -0.59579  -0.59238  -0.58854
  Beta  occ. eigenvalues --   -0.57037  -0.56074  -0.55597  -0.55001  -0.54352
  Beta  occ. eigenvalues --   -0.53817  -0.53510  -0.53058  -0.52080  -0.51418
  Beta  occ. eigenvalues --   -0.51342  -0.51137  -0.50884  -0.50169  -0.49922
  Beta  occ. eigenvalues --   -0.49614  -0.49297  -0.49033  -0.48877  -0.48662
  Beta  occ. eigenvalues --   -0.48434  -0.47636  -0.47167  -0.46988  -0.46717
  Beta  occ. eigenvalues --   -0.45909  -0.44986  -0.44911  -0.44448  -0.44190
  Beta  occ. eigenvalues --   -0.43777  -0.43397  -0.43117  -0.42558  -0.42414
  Beta  occ. eigenvalues --   -0.42287  -0.41865  -0.41635  -0.41212  -0.40544
  Beta  occ. eigenvalues --   -0.39849  -0.39482  -0.39165  -0.38998  -0.38508
  Beta  occ. eigenvalues --   -0.38127  -0.36193  -0.34848  -0.33235  -0.32260
  Beta  occ. eigenvalues --   -0.32161  -0.31769  -0.31652  -0.31566  -0.31400
  Beta  occ. eigenvalues --   -0.30545  -0.28767  -0.27246
  Beta virt. eigenvalues --   -0.01225   0.00596   0.02853   0.03663   0.03775
  Beta virt. eigenvalues --    0.04056   0.04104   0.04236   0.04444   0.05206
  Beta virt. eigenvalues --    0.07352   0.08947   0.11538   0.12166   0.12542

 Mulliken charges and spin densities:
               1          2
     1  C    0.022150   0.000000
     2  C    0.027046  -0.000000
     3  C    0.006066   0.000000
     4  C    0.015573  -0.000000
     5  C    0.020517   0.000000
     6  C    0.026760  -0.000000
     7  C   -0.024571  -0.000000
     8  C    0.020746   0.000000
     9  C    0.015097  -0.000000
    10  C    0.029512   0.000000
    11  C    0.010382  -0.000000
    12  C    0.093333   0.000000
    13  F   -0.127088  -0.000000
    14  C    0.023193   0.000000
    15  C    0.011605  -0.000000
    16  C    0.030785  -0.000000
    17  C    0.026968  -0.000000
    18  C    0.015642   0.000000
    19  C    0.011119  -0.000000
    20  C   -0.021699   0.000000
    21  C    0.017414  -0.000000
    22  C    0.014628   0.000000
    23  C    0.032534  -0.000000
    24  C    0.010433  -0.000000
    25  C    0.090102   0.000000
    26  F   -0.126911   0.000000
    27  C    0.022593  -0.000000
    28  C    0.010907  -0.000000
    29  C    0.017267   0.000000
    30  C    0.026885   0.000000
    31  C    0.032802  -0.000000
    32  C    0.010797   0.000000
    33  C   -0.031921  -0.000000
    34  C    0.010861   0.000000
    35  C    0.031092   0.000000
    36  C    0.031709  -0.000000
    37  C    0.020361  -0.000000
    38  C    0.085681   0.000000
    39  F   -0.127553   0.000000
    40  H   -0.017005   0.000000
    41  H   -0.015946  -0.000000
    42  H   -0.023397  -0.000000
    43  H   -0.022961   0.000000
    44  H   -0.015183   0.000000
    45  H   -0.016708   0.000000
    46  H   -0.023724  -0.000000
    47  H   -0.011366  -0.000000
    48  H   -0.020900   0.000000
    49  H   -0.021358  -0.000000
    50  H   -0.022866  -0.000000
    51  H   -0.022982   0.000000
    52  H   -0.015997  -0.000000
    53  H   -0.022784   0.000000
    54  H   -0.010303   0.000000
    55  H   -0.023252   0.000000
    56  H   -0.022167  -0.000000
    57  H   -0.021134  -0.000000
    58  H   -0.021298   0.000000
    59  H   -0.015923   0.000000
    60  H   -0.014092   0.000000
    61  H   -0.009411   0.000000
    62  H   -0.002059  -0.000000
 Sum of Mulliken charges =  -0.00000   0.00000

 Dipole moment (field-independent basis, Debye):
    X=              1.7921    Y=             -2.1301    Z=             -0.3181  Tot=              2.8018
 Quadrupole moment (field-independent basis, Debye-Ang):
   XX=           -182.3611   YY=           -212.3971   ZZ=           -222.5724
   XY=             -0.1599   XZ=              0.6886   YZ=              1.5407

 Normal termination of Gaussian 16 at Fri Jul 24 00:25:07 2020.
