 Gaussian 16, Revision A.03,
 Gaussian 16:  EM64L-G16RevA.03 25-Dec-2016

 ---------------------------------------------------------------
 #P uLC-wPBE/cc-pVDZ iop(3/107=0050500000, 3/108=0050500000) opt
 ---------------------------------------------------------------

 ----------------
 H22 C45 S5 N5 F5
 ----------------
 Symbolic Z-matrix:
 Charge =  0 Multiplicity = 1

 SCF Done:  E(ULC-wPBE) =  -4488.76758595     A.U. after   19 cycles
 SCF Done:  E(ULC-wPBE) =  -4488.85506299     A.U. after   14 cycles
 SCF Done:  E(ULC-wPBE) =  -4488.91875107     A.U. after   15 cycles
 SCF Done:  E(ULC-wPBE) =  -4488.93595571     A.U. after   14 cycles
 SCF Done:  E(ULC-wPBE) =  -4488.94358486     A.U. after   15 cycles
 SCF Done:  E(ULC-wPBE) =  -4488.94685785     A.U. after   14 cycles
 SCF Done:  E(ULC-wPBE) =  -4488.94899374     A.U. after   15 cycles
 SCF Done:  E(ULC-wPBE) =  -4488.94963868     A.U. after   14 cycles
 SCF Done:  E(ULC-wPBE) =  -4488.94986451     A.U. after   13 cycles
 SCF Done:  E(ULC-wPBE) =  -4488.94993440     A.U. after   12 cycles
 SCF Done:  E(ULC-wPBE) =  -4488.95003621     A.U. after   12 cycles
 SCF Done:  E(ULC-wPBE) =  -4488.95004278     A.U. after   12 cycles
 SCF Done:  E(ULC-wPBE) =  -4488.95004366     A.U. after   11 cycles
 SCF Done:  E(ULC-wPBE) =  -4488.95004431     A.U. after   11 cycles
 SCF Done:  E(ULC-wPBE) =  -4488.95004483     A.U. after   11 cycles
 SCF Done:  E(ULC-wPBE) =  -4488.95004550     A.U. after   11 cycles
 SCF Done:  E(ULC-wPBE) =  -4488.95004607     A.U. after    8 cycles
 SCF Done:  E(ULC-wPBE) =  -4488.95004602     A.U. after    7 cycles
 SCF Done:  E(ULC-wPBE) =  -4488.95004610     A.U. after    6 cycles
 SCF Done:  E(ULC-wPBE) =  -4488.95004621     A.U. after    6 cycles
 Optimization completed.
    -- Stationary point found.

                         Standard orientation:
 ---------------------------------------------------------------------
 Center     Atomic      Atomic             Coordinates (Angstroms)
 Number     Number       Type             X           Y           Z
 ---------------------------------------------------------------------
      1          6           0       19.695330    0.750800   -0.091498
      2          6           0       18.703984    1.732393    0.073311
      3          6           0       17.361363    1.356444    0.167169
      4          6           0       16.957872    0.000398    0.095883
      5          6           0       17.984229   -0.961593   -0.071794
      6          9           0       17.676635   -2.270804   -0.167414
      7          6           0       19.331538   -0.599968   -0.164292
      8          6           0       15.545811   -0.380743    0.185202
      9          7           0       15.083970   -1.585823    0.467050
     10          6           0       13.720647   -1.603531    0.479761
     11          6           0       13.059692   -0.409168    0.203213
     12         16           0       14.266392    0.825344   -0.106284
     13          6           0       11.623739   -0.139987    0.156224
     14          6           0       11.103614    1.179871    0.179475
     15          6           0        9.732507    1.416587    0.142389
     16          6           0        8.795578    0.354216    0.083341
     17          6           0        9.335836   -0.949349    0.061311
     18          9           0        8.486454   -2.012802   -0.003854
     19          6           0       10.700723   -1.210459    0.090773
     20          6           0        7.367089    0.655774    0.046654
     21          7           0        6.901820    1.898530    0.066112
     22          6           0        5.541608    1.917859    0.026147
     23          6           0        4.886846    0.688666   -0.027204
     24         16           0        6.098697   -0.579690   -0.023714
     25          6           0        3.453160    0.411152   -0.083603
     26          6           0        2.948178   -0.876218   -0.402206
     27          6           0        1.579418   -1.122115   -0.457669
     28          6           0        0.628958   -0.101406   -0.202706
     29          6           0        1.153879    1.170189    0.112082
     30          9           0        0.291266    2.191753    0.375566
     31          6           0        2.515917    1.438437    0.178981
     32          6           0       -0.796389   -0.410733   -0.275095
     33          7           0       -1.246887   -1.622415   -0.575190
     34          6           0       -2.607408   -1.657192   -0.579134
     35          6           0       -3.277273   -0.471617   -0.282304
     36         16           0       -2.080346    0.773339    0.025294
     37          6           0       -4.715149   -0.217571   -0.220251
     38          6           0       -5.245690    1.098020   -0.182811
     39          6           0       -6.618365    1.322300   -0.131046
     40          6           0       -7.547541    0.251526   -0.116308
     41          6           0       -6.997280   -1.047443   -0.153955
     42          9           0       -7.838135   -2.119672   -0.134227
     43          6           0       -5.630637   -1.296444   -0.200186
     44          6           0       -8.978151    0.540589   -0.062618
     45          7           0       -9.452496    1.779274   -0.026573
     46          6           0      -10.813036    1.786746    0.018173
     47          6           0      -11.458412    0.551771    0.019792
     48         16           0      -10.237729   -0.706123   -0.042845
     49          6           0      -12.890526    0.261216    0.068242
     50          6           0      -13.385531   -1.033183    0.371034
     51          6           0      -14.753157   -1.290054    0.419880
     52          6           0      -15.710557   -0.274837    0.173986
     53          6           0      -15.195410    1.003642   -0.124868
     54          9           0      -16.064958    2.021810   -0.379746
     55          6           0      -13.834807    1.283602   -0.185643
     56          6           0      -17.136579   -0.596732    0.238601
     57          7           0      -17.578631   -1.812093    0.522105
     58          6           0      -18.947053   -1.855290    0.522123
     59          6           0      -19.593127   -0.669181    0.237259
     60         16           0      -18.431666    0.584536   -0.049956
     61          1           0       20.754827    1.034612   -0.161513
     62          1           0       18.979053    2.793972    0.138378
     63          1           0       16.591678    2.127889    0.318969
     64          1           0       20.075763   -1.396567   -0.298001
     65          1           0       13.208699   -2.542597    0.729015
     66          1           0       11.794169    2.033165    0.241053
     67          1           0        9.331689    2.438539    0.162679
     68          1           0       11.027847   -2.256922    0.043882
     69          1           0        5.029088    2.888999    0.019127
     70          1           0        3.648358   -1.695137   -0.621261
     71          1           0        1.191099   -2.118405   -0.706762
     72          1           0        2.828253    2.453985    0.453492
     73          1           0       -3.109205   -2.600732   -0.831694
     74          1           0       -4.562971    1.959538   -0.206994
     75          1           0       -7.026757    2.341109   -0.104492
     76          1           0       -5.296967   -2.341885   -0.203830
     77          1           0      -11.333293    2.752366    0.071001
     78          1           0      -12.679180   -1.848425    0.584185
     79          1           0      -15.134896   -2.291901    0.656836
     80          1           0      -13.529107    2.303877   -0.450260
     81          1           0      -19.453624   -2.804296    0.742315
     82          1           0      -20.668524   -0.468894    0.181635
 ---------------------------------------------------------------------

 The electronic state is 1-A.
 Alpha  occ. eigenvalues --  -88.14609 -88.14509 -88.14445 -88.14330 -88.14002
 Alpha  occ. eigenvalues --  -24.33723 -24.33652 -24.33513 -24.33207 -24.32093
 Alpha  occ. eigenvalues --  -14.04141 -14.04039 -14.03902 -14.03865 -14.03312
 Alpha  occ. eigenvalues --  -10.02942 -10.02863 -10.02725 -10.02413 -10.02411
 Alpha  occ. eigenvalues --  -10.00654 -10.00574 -10.00549 -10.00358  -9.99807
 Alpha  occ. eigenvalues --   -9.98060  -9.97903  -9.97800  -9.97611  -9.97433
 Alpha  occ. eigenvalues --   -9.97352  -9.97219  -9.97206  -9.97094  -9.97082
 Alpha  occ. eigenvalues --   -9.96935  -9.96886  -9.96829  -9.96742  -9.96710
 Alpha  occ. eigenvalues --   -9.96609  -9.96333  -9.96302  -9.96295  -9.95562
 Alpha  occ. eigenvalues --   -9.95532  -9.95499  -9.95375  -9.95335  -9.95331
 Alpha  occ. eigenvalues --   -9.95238  -9.95116  -9.95116  -9.95105  -9.95025
 Alpha  occ. eigenvalues --   -9.94909  -9.94906  -9.94796  -9.94753  -9.94645
 Alpha  occ. eigenvalues --   -7.74844  -7.74744  -7.74722  -7.74566  -7.74227
 Alpha  occ. eigenvalues --   -5.76918  -5.76818  -5.76786  -5.76639  -5.76500
 Alpha  occ. eigenvalues --   -5.76400  -5.76386  -5.76289  -5.76221  -5.76142
 Alpha  occ. eigenvalues --   -5.76042  -5.76012  -5.75869  -5.75864  -5.75555
 Alpha  occ. eigenvalues --   -1.16719  -1.16643  -1.16505  -1.16198  -1.15536
 Alpha  occ. eigenvalues --   -0.92114  -0.92007  -0.91932  -0.91822  -0.91189
 Alpha  occ. eigenvalues --   -0.83887  -0.83671  -0.83457  -0.83162  -0.82694
 Alpha  occ. eigenvalues --   -0.78799  -0.78440  -0.78114  -0.77831  -0.75917
 Alpha  occ. eigenvalues --   -0.75669  -0.75332  -0.74962  -0.74462  -0.74057
 Alpha  occ. eigenvalues --   -0.72404  -0.72295  -0.72151  -0.71855  -0.71808
 Alpha  occ. eigenvalues --   -0.71402  -0.70469  -0.69385  -0.68317  -0.67496
 Alpha  occ. eigenvalues --   -0.63880  -0.62955  -0.62326  -0.62009  -0.61194
 Alpha  occ. eigenvalues --   -0.60412  -0.60214  -0.59902  -0.59583  -0.59238
 Alpha  occ. eigenvalues --   -0.56879  -0.56659  -0.56477  -0.56301  -0.56080
 Alpha  occ. eigenvalues --   -0.54897  -0.54656  -0.54384  -0.54174  -0.53819
 Alpha  occ. eigenvalues --   -0.51913  -0.51687  -0.51486  -0.51089  -0.50897
 Alpha  occ. eigenvalues --   -0.49443  -0.49159  -0.48877  -0.48627  -0.48436
 Alpha  occ. eigenvalues --   -0.48156  -0.47798  -0.47453  -0.47152  -0.47023
 Alpha  occ. eigenvalues --   -0.46196  -0.45367  -0.45229  -0.45136  -0.44984
 Alpha  occ. eigenvalues --   -0.44717  -0.44650  -0.44219  -0.44048  -0.43614
 Alpha  occ. eigenvalues --   -0.43470  -0.43216  -0.42904  -0.42718  -0.42569
 Alpha  occ. eigenvalues --   -0.41708  -0.41559  -0.41446  -0.41357  -0.41220
 Alpha  occ. eigenvalues --   -0.41199  -0.41103  -0.41011  -0.40955  -0.40865
 Alpha  occ. eigenvalues --   -0.40195  -0.40173  -0.39865  -0.39535  -0.39028
 Alpha  occ. eigenvalues --   -0.38460  -0.37801  -0.37704  -0.37531  -0.37289
 Alpha  occ. eigenvalues --   -0.37226  -0.36880  -0.36783  -0.36454  -0.36214
 Alpha  occ. eigenvalues --   -0.36128  -0.35725  -0.35660  -0.35284  -0.34997
 Alpha  occ. eigenvalues --   -0.34972  -0.34249  -0.34173  -0.34089  -0.33940
 Alpha  occ. eigenvalues --   -0.33719  -0.32947  -0.32048  -0.30997  -0.29978
 Alpha  occ. eigenvalues --   -0.29030  -0.28689  -0.28595  -0.28525  -0.28223
 Alpha  occ. eigenvalues --   -0.27939  -0.27271  -0.27157  -0.26992  -0.26847
 Alpha  occ. eigenvalues --   -0.26712  -0.26593  -0.26579  -0.26493  -0.26333
 Alpha  occ. eigenvalues --   -0.26221  -0.25643  -0.24545  -0.23248  -0.22006
 Alpha  occ. eigenvalues --   -0.21058
 Alpha virt. eigenvalues --   -0.09349  -0.08273  -0.06980  -0.05640  -0.04576
 Alpha virt. eigenvalues --   -0.02886  -0.02629  -0.02461  -0.02327  -0.02191
 Alpha virt. eigenvalues --   -0.01951  -0.01028   0.00060   0.00684   0.00972

  Beta  occ. eigenvalues --  -88.14609 -88.14509 -88.14445 -88.14330 -88.14002
  Beta  occ. eigenvalues --  -24.33723 -24.33652 -24.33513 -24.33207 -24.32093
  Beta  occ. eigenvalues --  -14.04141 -14.04039 -14.03902 -14.03865 -14.03312
  Beta  occ. eigenvalues --  -10.02942 -10.02863 -10.02725 -10.02413 -10.02411
  Beta  occ. eigenvalues --  -10.00654 -10.00574 -10.00549 -10.00358  -9.99807
  Beta  occ. eigenvalues --   -9.98060  -9.97903  -9.97800  -9.97611  -9.97433
  Beta  occ. eigenvalues --   -9.97352  -9.97219  -9.97206  -9.97094  -9.97082
  Beta  occ. eigenvalues --   -9.96935  -9.96886  -9.96829  -9.96742  -9.96710
  Beta  occ. eigenvalues --   -9.96609  -9.96333  -9.96302  -9.96295  -9.95562
  Beta  occ. eigenvalues --   -9.95532  -9.95499  -9.95375  -9.95335  -9.95331
  Beta  occ. eigenvalues --   -9.95238  -9.95116  -9.95116  -9.95105  -9.95025
  Beta  occ. eigenvalues --   -9.94909  -9.94906  -9.94796  -9.94753  -9.94645
  Beta  occ. eigenvalues --   -7.74844  -7.74744  -7.74722  -7.74566  -7.74227
  Beta  occ. eigenvalues --   -5.76918  -5.76818  -5.76786  -5.76639  -5.76500
  Beta  occ. eigenvalues --   -5.76400  -5.76386  -5.76289  -5.76221  -5.76142
  Beta  occ. eigenvalues --   -5.76042  -5.76012  -5.75869  -5.75864  -5.75555
  Beta  occ. eigenvalues --   -1.16719  -1.16643  -1.16505  -1.16198  -1.15536
  Beta  occ. eigenvalues --   -0.92114  -0.92007  -0.91932  -0.91822  -0.91189
  Beta  occ. eigenvalues --   -0.83887  -0.83671  -0.83457  -0.83162  -0.82694
  Beta  occ. eigenvalues --   -0.78799  -0.78440  -0.78114  -0.77831  -0.75917
  Beta  occ. eigenvalues --   -0.75669  -0.75332  -0.74962  -0.74462  -0.74057
  Beta  occ. eigenvalues --   -0.72404  -0.72295  -0.72151  -0.71855  -0.71808
  Beta  occ. eigenvalues --   -0.71402  -0.70469  -0.69385  -0.68317  -0.67496
  Beta  occ. eigenvalues --   -0.63880  -0.62955  -0.62326  -0.62009  -0.61194
  Beta  occ. eigenvalues --   -0.60412  -0.60214  -0.59902  -0.59583  -0.59238
  Beta  occ. eigenvalues --   -0.56879  -0.56659  -0.56477  -0.56301  -0.56080
  Beta  occ. eigenvalues --   -0.54897  -0.54656  -0.54384  -0.54174  -0.53819
  Beta  occ. eigenvalues --   -0.51913  -0.51687  -0.51486  -0.51089  -0.50897
  Beta  occ. eigenvalues --   -0.49443  -0.49159  -0.48877  -0.48627  -0.48436
  Beta  occ. eigenvalues --   -0.48156  -0.47798  -0.47453  -0.47152  -0.47023
  Beta  occ. eigenvalues --   -0.46196  -0.45367  -0.45229  -0.45136  -0.44984
  Beta  occ. eigenvalues --   -0.44717  -0.44650  -0.44219  -0.44048  -0.43614
  Beta  occ. eigenvalues --   -0.43470  -0.43216  -0.42904  -0.42718  -0.42569
  Beta  occ. eigenvalues --   -0.41708  -0.41559  -0.41446  -0.41357  -0.41220
  Beta  occ. eigenvalues --   -0.41199  -0.41103  -0.41011  -0.40955  -0.40865
  Beta  occ. eigenvalues --   -0.40195  -0.40173  -0.39865  -0.39535  -0.39028
  Beta  occ. eigenvalues --   -0.38460  -0.37801  -0.37704  -0.37531  -0.37289
  Beta  occ. eigenvalues --   -0.37226  -0.36880  -0.36783  -0.36454  -0.36214
  Beta  occ. eigenvalues --   -0.36128  -0.35725  -0.35660  -0.35284  -0.34997
  Beta  occ. eigenvalues --   -0.34972  -0.34249  -0.34173  -0.34089  -0.33940
  Beta  occ. eigenvalues --   -0.33719  -0.32947  -0.32048  -0.30997  -0.29978
  Beta  occ. eigenvalues --   -0.29030  -0.28689  -0.28595  -0.28525  -0.28223
  Beta  occ. eigenvalues --   -0.27939  -0.27271  -0.27157  -0.26992  -0.26847
  Beta  occ. eigenvalues --   -0.26712  -0.26593  -0.26579  -0.26493  -0.26333
  Beta  occ. eigenvalues --   -0.26221  -0.25643  -0.24545  -0.23248  -0.22006
  Beta  occ. eigenvalues --   -0.21058
  Beta virt. eigenvalues --   -0.09349  -0.08273  -0.06980  -0.05640  -0.04576
  Beta virt. eigenvalues --   -0.02886  -0.02629  -0.02461  -0.02327  -0.02191
  Beta virt. eigenvalues --   -0.01951  -0.01028   0.00060   0.00684   0.00972

 Mulliken charges and spin densities:
               1          2
     1  C    0.040371  -0.000000
     2  C    0.039058   0.000000
     3  C   -0.006899  -0.000000
     4  C    0.021025  -0.000000
     5  C    0.094482   0.000000
     6  F   -0.098353  -0.000000
     7  C    0.026908   0.000000
     8  C   -0.006864   0.000000
     9  N   -0.160652   0.000000
    10  C    0.122972   0.000000
    11  C   -0.185313  -0.000000
    12  S    0.115711  -0.000000
    13  C    0.104471   0.000000
    14  C    0.012876  -0.000000
    15  C    0.050589   0.000000
    16  C    0.018275   0.000000
    17  C    0.062231  -0.000000
    18  F   -0.122543   0.000000
    19  C    0.006405   0.000000
    20  C    0.008185  -0.000000
    21  N   -0.178022  -0.000000
    22  C    0.133354  -0.000000
    23  C   -0.198527   0.000000
    24  S    0.140976   0.000000
    25  C    0.106789   0.000000
    26  C    0.010530  -0.000000
    27  C    0.051105   0.000000
    28  C    0.018554   0.000000
    29  C    0.062255  -0.000000
    30  F   -0.122897   0.000000
    31  C    0.004491   0.000000
    32  C    0.007946  -0.000000
    33  N   -0.177842   0.000000
    34  C    0.133282  -0.000000
    35  C   -0.198503   0.000000
    36  S    0.140388   0.000000
    37  C    0.106022   0.000000
    38  C    0.010841  -0.000000
    39  C    0.050843   0.000000
    40  C    0.018666  -0.000000
    41  C    0.062064   0.000000
    42  F   -0.122993  -0.000000
    43  C    0.004587  -0.000000
    44  C    0.007061   0.000000
    45  N   -0.178134   0.000000
    46  C    0.132591  -0.000000
    47  C   -0.197729   0.000000
    48  S    0.140217  -0.000000
    49  C    0.103709   0.000000
    50  C    0.010087  -0.000000
    51  C    0.049138  -0.000000
    52  C    0.028146  -0.000000
    53  C    0.064422   0.000000
    54  F   -0.124840  -0.000000
    55  C    0.003091  -0.000000
    56  C   -0.016270  -0.000000
    57  N   -0.181056   0.000000
    58  C    0.132020  -0.000000
    59  C   -0.162343   0.000000
    60  S    0.154545   0.000000
    61  H   -0.009635  -0.000000
    62  H   -0.014702   0.000000
    63  H   -0.010521   0.000000
    64  H   -0.002908  -0.000000
    65  H    0.004128  -0.000000
    66  H   -0.016337  -0.000000
    67  H   -0.014529  -0.000000
    68  H   -0.012102   0.000000
    69  H    0.003206   0.000000
    70  H   -0.013103  -0.000000
    71  H   -0.014203   0.000000
    72  H   -0.014053   0.000000
    73  H    0.003212   0.000000
    74  H   -0.013739   0.000000
    75  H   -0.014629   0.000000
    76  H   -0.014143  -0.000000
    77  H    0.002521   0.000000
    78  H   -0.014659  -0.000000
    79  H   -0.015158  -0.000000
    80  H   -0.015045  -0.000000
    81  H    0.000883   0.000000
    82  H    0.024019   0.000000
 Sum of Mulliken charges =  -0.00000   0.00000

 Dipole moment (field-independent basis, Debye):
    X=              2.5653    Y=              1.6981    Z=             -0.1465  Tot=              3.0799
 Quadrupole moment (field-independent basis, Debye-Ang):
   XX=           -273.4482   YY=           -358.8425   ZZ=           -381.3603
   XY=             29.4530   XZ=             -2.9196   YZ=              0.6963

 Normal termination of Gaussian 16 at Fri Jul 24 16:19:49 2020.
