 Gaussian 16, Revision A.03,
 Gaussian 16:  EM64L-G16RevA.03 25-Dec-2016

 ---------------------------------------------------------------
 #P uLC-wPBE/cc-pVDZ iop(3/107=0398000000, 3/108=0398000000) opt
 ---------------------------------------------------------------

 -------------
 H65 C91 O7 F7
 -------------
 Symbolic Z-matrix:
 Charge =  0 Multiplicity = 1

 SCF Done:  E(ULC-wPBE) =  -4728.95331617     A.U. after   17 cycles
 SCF Done:  E(ULC-wPBE) =  -4729.06325328     A.U. after   14 cycles
 SCF Done:  E(ULC-wPBE) =  -4729.18916848     A.U. after   14 cycles
 SCF Done:  E(ULC-wPBE) =  -4729.23409988     A.U. after   16 cycles
 SCF Done:  E(ULC-wPBE) =  -4729.24456034     A.U. after   14 cycles
 SCF Done:  E(ULC-wPBE) =  -4729.24782962     A.U. after   15 cycles
 SCF Done:  E(ULC-wPBE) =  -4729.24928946     A.U. after   14 cycles
 SCF Done:  E(ULC-wPBE) =  -4729.24982022     A.U. after   13 cycles
 SCF Done:  E(ULC-wPBE) =  -4729.24999952     A.U. after   13 cycles
 SCF Done:  E(ULC-wPBE) =  -4729.25011488     A.U. after   11 cycles
 SCF Done:  E(ULC-wPBE) =  -4729.25014327     A.U. after   11 cycles
 SCF Done:  E(ULC-wPBE) =  -4729.25015597     A.U. after   10 cycles
 SCF Done:  E(ULC-wPBE) =  -4729.25016174     A.U. after   10 cycles
 SCF Done:  E(ULC-wPBE) =  -4729.25016281     A.U. after   10 cycles
 SCF Done:  E(ULC-wPBE) =  -4729.25016359     A.U. after   10 cycles
 SCF Done:  E(ULC-wPBE) =  -4729.25016397     A.U. after    8 cycles
 SCF Done:  E(ULC-wPBE) =  -4729.25016390     A.U. after    6 cycles
 SCF Done:  E(ULC-wPBE) =  -4729.25016391     A.U. after    7 cycles
 SCF Done:  E(ULC-wPBE) =  -4729.25016401     A.U. after    6 cycles
 SCF Done:  E(ULC-wPBE) =  -4729.25016401     A.U. after    6 cycles
 Optimization completed.
    -- Stationary point found.

                         Standard orientation:
 ---------------------------------------------------------------------
 Center     Atomic      Atomic             Coordinates (Angstroms)
 Number     Number       Type             X           Y           Z
 ---------------------------------------------------------------------
      1          6           0      -29.483790    0.996473    0.768195
      2          6           0      -28.769442    1.871566   -0.036057
      3          6           0      -27.393499    1.742565   -0.111619
      4          9           0      -26.722190    2.604248   -0.897175
      5          6           0      -26.686527    0.767591    0.585141
      6          6           0      -27.434065   -0.101244    1.382925
      7          6           0      -28.813315    0.008577    1.480389
      8          6           0      -25.205980    0.684563    0.496853
      9          6           0      -24.417459    1.806088    0.723918
     10          6           0      -23.031350    1.754539    0.659565
     11          6           0      -22.395006    0.555819    0.357082
     12          6           0      -23.171016   -0.581311    0.120117
     13          6           0      -24.558984   -0.524607    0.186437
     14          8           0      -25.361507   -1.591899   -0.046831
     15          6           0      -24.763482   -2.811868   -0.413057
     16          6           0      -20.913951    0.476369    0.283435
     17          6           0      -20.231576   -0.608530    0.827947
     18          6           0      -18.852146   -0.662889    0.751223
     19          9           0      -18.238230   -1.727008    1.300517
     20          6           0      -18.085249    0.326116    0.144563
     21          6           0      -18.787167    1.403361   -0.399931
     22          6           0      -20.168436    1.484576   -0.331390
     23          6           0      -16.603284    0.242295    0.110468
     24          6           0      -15.878856    0.001420    1.271926
     25          6           0      -14.492219   -0.070331    1.270984
     26          6           0      -13.789419    0.097609    0.082994
     27          6           0      -14.500282    0.335160   -1.095834
     28          6           0      -15.889071    0.406738   -1.089786
     29          8           0      -16.629955    0.620947   -2.204504
     30          6           0      -15.964050    0.743408   -3.438288
     31          6           0      -12.306382    0.025791    0.057714
     32          6           0      -11.562986    0.929071   -0.697640
     33          6           0      -10.182817    0.846928   -0.706524
     34          9           0       -9.508995    1.748042   -1.444286
     35          6           0       -9.474008   -0.110786    0.010963
     36          6           0      -10.236478   -1.010517    0.758402
     37          6           0      -11.620009   -0.946214    0.788736
     38          6           0       -7.989740   -0.144671   -0.003664
     39          6           0       -7.250742    1.003233    0.257206
     40          6           0       -5.862312    0.997442    0.261114
     41          6           0       -5.172232   -0.180079   -0.004704
     42          6           0       -5.897502   -1.343020   -0.274729
     43          6           0       -7.288102   -1.332240   -0.277308
     44          8           0       -8.042190   -2.426329   -0.546606
     45          6           0       -7.386720   -3.625637   -0.881024
     46          6           0       -3.687632   -0.212862   -0.004155
     47          6           0       -2.957923    0.819999   -0.586976
     48          6           0       -1.576075    0.777155   -0.575513
     49          9           0       -0.915217    1.793668   -1.157823
     50          6           0       -0.852217   -0.263025   -0.001586
     51          6           0       -1.600864   -1.290382    0.575579
     52          6           0       -2.986144   -1.270146    0.579506
     53          6           0        0.632259   -0.252593    0.015292
     54          6           0        1.328791    0.862275    0.467018
     55          6           0        2.716254    0.896133    0.503995
     56          6           0        3.448974   -0.206141    0.077972
     57          6           0        2.767070   -1.334111   -0.384573
     58          6           0        1.377153   -1.363175   -0.419619
     59          8           0        0.664652   -2.424755   -0.871524
     60          6           0        1.366054   -3.535281   -1.376077
     61          6           0        4.933601   -0.195701    0.109827
     62          6           0        5.640864    0.933214   -0.295225
     63          6           0        7.023045    0.927551   -0.260865
     64          9           0        7.662109    2.037431   -0.671712
     65          6           0        7.768535   -0.165751    0.168223
     66          6           0        7.041944   -1.285669    0.576740
     67          6           0        5.657010   -1.307811    0.546136
     68          6           0        9.253002   -0.138880    0.160713
     69          6           0        9.950348    0.245577   -0.978534
     70          6           0       11.338043    0.270020   -1.016680
     71          6           0       12.069864   -0.093659    0.108317
     72          6           0       11.386824   -0.477777    1.264706
     73          6           0        9.996755   -0.500987    1.297922
     74          8           0        9.282549   -0.851383    2.395777
     75          6           0        9.980195   -1.159238    3.578413
     76          6           0       13.554715   -0.077328    0.092527
     77          6           0       14.243234    0.972610   -0.509468
     78          6           0       15.625825    0.974684   -0.514789
     79          9           0       16.246175    2.015398   -1.098970
     80          6           0       16.390000   -0.037073    0.057539
     81          6           0       15.682262   -1.084484    0.650047
     82          6           0       14.297174   -1.107340    0.674121
     83          6           0       17.873702    0.021090    0.055995
     84          6           0       18.539695    1.157022    0.501082
     85          6           0       19.925812    1.233665    0.525028
     86          6           0       20.688281    0.156490    0.086922
     87          6           0       20.036894   -0.991048   -0.371288
     88          6           0       18.648271   -1.065103   -0.388479
     89          8           0       17.964871   -2.154799   -0.816878
     90          6           0       18.693836   -3.241740   -1.334145
     91          6           0       22.171988    0.216899    0.102046
     92          6           0       22.915565   -0.281333   -0.964763
     93          6           0       24.296344   -0.216065   -0.931246
     94          9           0       24.970006   -0.704083   -1.988634
     95          6           0       25.005407    0.332387    0.132002
     96          6           0       24.243068    0.829671    1.190533
     97          6           0       22.858802    0.773862    1.182956
     98          6           0       26.490684    0.355919    0.139791
     99          6           0       27.216245   -0.805670   -0.100741
    100          6           0       28.606209   -0.814871   -0.087112
    101          6           0       29.286224    0.364327    0.166216
    102          6           0       28.588792    1.543909    0.404351
    103          6           0       27.196585    1.545863    0.392546
    104          8           0       26.446125    2.653956    0.611687
    105          6           0       27.107958    3.879484    0.809868
    106          1           0      -30.568886    1.088421    0.838196
    107          1           0      -29.256039    2.657919   -0.613444
    108          1           0      -26.908716   -0.879158    1.937015
    109          1           0      -29.368608   -0.681768    2.116880
    110          1           0      -24.908481    2.748880    0.967909
    111          1           0      -22.443387    2.648619    0.870024
    112          1           0      -22.671108   -1.511430   -0.146035
    113          1           0      -25.585683   -3.518831   -0.570453
    114          1           0      -24.187016   -2.717356   -1.347321
    115          1           0      -24.104322   -3.198537    0.381159
    116          1           0      -20.755880   -1.416602    1.338892
    117          1           0      -18.224192    2.193606   -0.896174
    118          1           0      -20.681472    2.335233   -0.782161
    119          1           0      -16.421662   -0.124673    2.209380
    120          1           0      -13.955506   -0.233815    2.206165
    121          1           0      -13.949029    0.436467   -2.029478
    122          1           0      -16.745137    0.890940   -4.192393
    123          1           0      -15.394174   -0.166969   -3.684261
    124          1           0      -15.283960    1.610572   -3.451053
    125          1           0      -12.039883    1.723336   -1.272651
    126          1           0       -9.719812   -1.785093    1.324777
    127          1           0      -12.180968   -1.676883    1.373098
    128          1           0       -7.783672    1.929893    0.473048
    129          1           0       -5.315594    1.911424    0.496178
    130          1           0       -5.354139   -2.256250   -0.512298
    131          1           0       -8.176249   -4.359605   -1.077355
    132          1           0       -6.768469   -3.511817   -1.785963
    133          1           0       -6.754896   -3.990064   -0.054702
    134          1           0       -3.449470    1.659435   -1.079362
    135          1           0       -1.071586   -2.122172    1.040081
    136          1           0       -3.534491   -2.077693    1.066971
    137          1           0        0.762165    1.729054    0.808977
    138          1           0        3.228583    1.778479    0.889361
    139          1           0        3.344235   -2.184011   -0.745463
    140          1           0        0.605490   -4.252438   -1.704555
    141          1           0        1.994732   -4.007266   -0.603528
    142          1           0        1.996372   -3.260611   -2.237051
    143          1           0        5.131998    1.825157   -0.661579
    144          1           0        7.588384   -2.158047    0.934628
    145          1           0        5.125448   -2.196353    0.890209
    146          1           0        9.384551    0.527205   -1.867290
    147          1           0       11.851805    0.552163   -1.936457
    148          1           0       11.962353   -0.732959    2.153161
    149          1           0        9.217361   -1.383856    4.332217
    150          1           0       10.587820   -0.307797    3.924588
    151          1           0       10.630546   -2.040059    3.451806
    152          1           0       13.718815    1.813047   -0.964857
    153          1           0       16.243956   -1.904907    1.096223
    154          1           0       13.781102   -1.952590    1.132022
    155          1           0       17.949578    2.011062    0.835306
    156          1           0       20.414269    2.147907    0.863984
    157          1           0       20.636156   -1.840721   -0.694976
    158          1           0       17.951630   -3.982622   -1.651665
    159          1           0       19.300907   -2.945406   -2.204631
    160          1           0       19.349688   -3.693842   -0.572494
    161          1           0       22.436484   -0.701750   -1.849467
    162          1           0       24.761060    1.265824    2.044546
    163          1           0       22.299456    1.149520    2.040922
    164          1           0       26.670487   -1.728409   -0.302080
    165          1           0       29.150009   -1.741312   -0.274802
    166          1           0       30.377598    0.379118    0.180503
    167          1           0       29.142178    2.461671    0.597109
    168          1           0       27.729605    4.150284   -0.058765
    169          1           0       27.737797    3.862484    1.714287
    170          1           0       26.322687    4.633294    0.935878
 ---------------------------------------------------------------------

 Alpha virt. eigenvalues --    0.63164   0.63296   0.63459   0.63504   0.63571
 Alpha virt. eigenvalues --    0.63728   0.63828   0.63925   0.63954   0.64061
 Alpha virt. eigenvalues --    0.64227   0.64339   0.64429   0.64641   0.64648

  Beta  occ. eigenvalues --  -24.49524 -24.49507 -24.49474 -24.49467 -24.49456
  Beta  occ. eigenvalues --  -24.49431 -24.49294 -19.01627 -19.01579 -19.01577
  Beta  occ. eigenvalues --  -19.01553 -19.01511 -19.01436 -19.01385 -10.20201
  Beta  occ. eigenvalues --  -10.20191 -10.20185 -10.20171 -10.20167 -10.20125
  Beta  occ. eigenvalues --  -10.19964 -10.18725 -10.18702 -10.18694 -10.18676
  Beta  occ. eigenvalues --  -10.18654 -10.18576 -10.18465 -10.17774 -10.17710
  Beta  occ. eigenvalues --  -10.17699 -10.17662 -10.17600 -10.17568 -10.17558
  Beta  occ. eigenvalues --  -10.13968 -10.13956 -10.13946 -10.13939 -10.13893
  Beta  occ. eigenvalues --  -10.13892 -10.13768 -10.13751 -10.13745 -10.13723
  Beta  occ. eigenvalues --  -10.13719 -10.13652 -10.13592 -10.13587 -10.13576
  Beta  occ. eigenvalues --  -10.13570 -10.13529 -10.13476 -10.13435 -10.13200
  Beta  occ. eigenvalues --  -10.13188 -10.13179 -10.13165 -10.13145 -10.13043
  Beta  occ. eigenvalues --  -10.13029 -10.12838 -10.12838 -10.12834 -10.12809
  Beta  occ. eigenvalues --  -10.12771 -10.12721 -10.12712 -10.12581 -10.12568
  Beta  occ. eigenvalues --  -10.12558 -10.12548 -10.12540 -10.12529 -10.12514
  Beta  occ. eigenvalues --  -10.12504 -10.12468 -10.12450 -10.12446 -10.12441
  Beta  occ. eigenvalues --  -10.12437 -10.12429 -10.12365 -10.12357 -10.12225
  Beta  occ. eigenvalues --  -10.12221 -10.12211 -10.12203 -10.12198 -10.12192
  Beta  occ. eigenvalues --  -10.12174 -10.12154 -10.12105 -10.12092 -10.12070
  Beta  occ. eigenvalues --  -10.12056 -10.12052 -10.12012 -10.11649 -10.11637
  Beta  occ. eigenvalues --  -10.11636 -10.11610 -10.11607 -10.11541 -10.11459
  Beta  occ. eigenvalues --   -1.34161  -1.34136  -1.34126  -1.34119  -1.34107
  Beta  occ. eigenvalues --   -1.34071  -1.33929  -1.21342  -1.21299  -1.21299
  Beta  occ. eigenvalues --   -1.21271  -1.21232  -1.21164  -1.21105  -1.03602
  Beta  occ. eigenvalues --   -1.03506  -1.03379  -1.03209  -1.03004  -1.02792
  Beta  occ. eigenvalues --   -1.02228  -1.01894  -1.01556  -1.01155  -1.00728
  Beta  occ. eigenvalues --   -1.00311  -0.99952  -0.99749  -0.96336  -0.95861
  Beta  occ. eigenvalues --   -0.95219  -0.94462  -0.93627  -0.92745  -0.91895
  Beta  occ. eigenvalues --   -0.90840  -0.90377  -0.90339  -0.90289  -0.90257
  Beta  occ. eigenvalues --   -0.90176  -0.90063  -0.90005  -0.89721  -0.89459
  Beta  occ. eigenvalues --   -0.89343  -0.89293  -0.89279  -0.89200  -0.89168
  Beta  occ. eigenvalues --   -0.88894  -0.88410  -0.87596  -0.86894  -0.86405
  Beta  occ. eigenvalues --   -0.86165  -0.84638  -0.84562  -0.84442  -0.84237
  Beta  occ. eigenvalues --   -0.83905  -0.83393  -0.82938  -0.80093  -0.79260
  Beta  occ. eigenvalues --   -0.78250  -0.77216  -0.76529  -0.76442  -0.76320
  Beta  occ. eigenvalues --   -0.76103  -0.76037  -0.75910  -0.75664  -0.75310
  Beta  occ. eigenvalues --   -0.74863  -0.74119  -0.73994  -0.73786  -0.73621
  Beta  occ. eigenvalues --   -0.73169  -0.72931  -0.72836  -0.72531  -0.72452
  Beta  occ. eigenvalues --   -0.72219  -0.71940  -0.71692  -0.71544  -0.71395
  Beta  occ. eigenvalues --   -0.71315  -0.68433  -0.68344  -0.68222  -0.68050
  Beta  occ. eigenvalues --   -0.67838  -0.67595  -0.66968  -0.66800  -0.65554
  Beta  occ. eigenvalues --   -0.64972  -0.64491  -0.64360  -0.63985  -0.63821
  Beta  occ. eigenvalues --   -0.63690  -0.63531  -0.63365  -0.63165  -0.63158
  Beta  occ. eigenvalues --   -0.62739  -0.62634  -0.62072  -0.62010  -0.61824
  Beta  occ. eigenvalues --   -0.61771  -0.61695  -0.61622  -0.61577  -0.61252
  Beta  occ. eigenvalues --   -0.61141  -0.61114  -0.60995  -0.60960  -0.60856
  Beta  occ. eigenvalues --   -0.60771  -0.60384  -0.60351  -0.60326  -0.60220
  Beta  occ. eigenvalues --   -0.60181  -0.60173  -0.60089  -0.59871  -0.59765
  Beta  occ. eigenvalues --   -0.59471  -0.59150  -0.59110  -0.59063  -0.59047
  Beta  occ. eigenvalues --   -0.59019  -0.58992  -0.58938  -0.58871  -0.58375
  Beta  occ. eigenvalues --   -0.57689  -0.57308  -0.57075  -0.56425  -0.56357
  Beta  occ. eigenvalues --   -0.56312  -0.56206  -0.56133  -0.55967  -0.55716
  Beta  occ. eigenvalues --   -0.55653  -0.55608  -0.55547  -0.55329  -0.55193
  Beta  occ. eigenvalues --   -0.55169  -0.54709  -0.54317  -0.54061  -0.53994
  Beta  occ. eigenvalues --   -0.53988  -0.53884  -0.53790  -0.53735  -0.53300
  Beta  occ. eigenvalues --   -0.52925  -0.52632  -0.52587  -0.52436  -0.52272
  Beta  occ. eigenvalues --   -0.52180  -0.51871  -0.51659  -0.51623  -0.51520
  Beta  occ. eigenvalues --   -0.51485  -0.51294  -0.51015  -0.50860  -0.50683
  Beta  occ. eigenvalues --   -0.50567  -0.50385  -0.50303  -0.50109  -0.49847
  Beta  occ. eigenvalues --   -0.49775  -0.49620  -0.49457  -0.49348  -0.49141
  Beta  occ. eigenvalues --   -0.48861  -0.48570  -0.48400  -0.48304  -0.48164
  Beta  occ. eigenvalues --   -0.48083  -0.48065  -0.47974  -0.47627  -0.47351
  Beta  occ. eigenvalues --   -0.47293  -0.47143  -0.47101  -0.46937  -0.46839
  Beta  occ. eigenvalues --   -0.46741  -0.46569  -0.46485  -0.46423  -0.46159
  Beta  occ. eigenvalues --   -0.46120  -0.46098  -0.45803  -0.44651  -0.44613
  Beta  occ. eigenvalues --   -0.44574  -0.44456  -0.44436  -0.44397  -0.44299
  Beta  occ. eigenvalues --   -0.44295  -0.44036  -0.43730  -0.43411  -0.43164
  Beta  occ. eigenvalues --   -0.42992  -0.42901  -0.40152  -0.39810  -0.39322
  Beta  occ. eigenvalues --   -0.38686  -0.37960  -0.37155  -0.36307  -0.35851
  Beta  occ. eigenvalues --   -0.35422  -0.35346  -0.35321  -0.35312  -0.35299
  Beta  occ. eigenvalues --   -0.35224  -0.34689  -0.34473  -0.34179  -0.33999
  Beta  occ. eigenvalues --   -0.33927  -0.33838  -0.33835  -0.32586  -0.32300
  Beta  occ. eigenvalues --   -0.31842  -0.31220  -0.30595  -0.30045  -0.29739
  Beta virt. eigenvalues --    0.01805   0.02248   0.02934   0.03808   0.04808
  Beta virt. eigenvalues --    0.05887   0.07185   0.07607   0.07961   0.08015
  Beta virt. eigenvalues --    0.08032   0.08075   0.08111   0.08215   0.08577

 Mulliken charges and spin densities:
               1          2
     1  C    0.009290  -0.000000
     2  C   -0.009517   0.000000
     3  C    0.098331  -0.000000
     4  F   -0.132064   0.000000
     5  C   -0.059616   0.000000
     6  C    0.037929   0.000000
     7  C    0.003063   0.000000
     8  C   -0.034972  -0.000000
     9  C    0.046416   0.000000
    10  C   -0.010493  -0.000000
    11  C    0.000993   0.000000
    12  C   -0.048361   0.000000
    13  C    0.119263   0.000000
    14  O   -0.251140  -0.000000
    15  C    0.044873   0.000000
    16  C    0.001465  -0.000000
    17  C   -0.011644  -0.000000
    18  C    0.107594   0.000000
    19  F   -0.131778  -0.000000
    20  C   -0.055667  -0.000000
    21  C    0.050657   0.000000
    22  C   -0.001246   0.000000
    23  C   -0.035696   0.000000
    24  C    0.044341  -0.000000
    25  C   -0.010325   0.000000
    26  C    0.001240   0.000000
    27  C   -0.047894  -0.000000
    28  C    0.118388   0.000000
    29  O   -0.251821  -0.000000
    30  C    0.044686  -0.000000
    31  C    0.001521   0.000000
    32  C   -0.011664  -0.000000
    33  C    0.107922   0.000000
    34  F   -0.131089  -0.000000
    35  C   -0.055731  -0.000000
    36  C    0.050622   0.000000
    37  C   -0.001439  -0.000000
    38  C   -0.035430   0.000000
    39  C    0.044491  -0.000000
    40  C   -0.009881   0.000000
    41  C    0.000804  -0.000000
    42  C   -0.047882   0.000000
    43  C    0.118028  -0.000000
    44  O   -0.251866   0.000000
    45  C    0.045060   0.000000
    46  C    0.002701   0.000000
    47  C   -0.008482  -0.000000
    48  C    0.106171  -0.000000
    49  F   -0.130041   0.000000
    50  C   -0.052783  -0.000000
    51  C    0.049221  -0.000000
    52  C   -0.003896   0.000000
    53  C   -0.035020  -0.000000
    54  C    0.044302   0.000000
    55  C   -0.009258  -0.000000
    56  C    0.000678   0.000000
    57  C   -0.047417  -0.000000
    58  C    0.117629   0.000000
    59  O   -0.252566  -0.000000
    60  C    0.045339  -0.000000
    61  C    0.000678   0.000000
    62  C   -0.008254  -0.000000
    63  C    0.108728  -0.000000
    64  F   -0.129923   0.000000
    65  C   -0.055647   0.000000
    66  C    0.050281   0.000000
    67  C   -0.004086  -0.000000
    68  C   -0.035679   0.000000
    69  C    0.044064   0.000000
    70  C   -0.009598  -0.000000
    71  C    0.000809  -0.000000
    72  C   -0.047574   0.000000
    73  C    0.118063  -0.000000
    74  O   -0.252087   0.000000
    75  C    0.045037  -0.000000
    76  C    0.000833   0.000000
    77  C   -0.008498   0.000000
    78  C    0.108898   0.000000
    79  F   -0.129889   0.000000
    80  C   -0.056345  -0.000000
    81  C    0.050353   0.000000
    82  C   -0.004261  -0.000000
    83  C   -0.038652   0.000000
    84  C    0.045242   0.000000
    85  C   -0.010119  -0.000000
    86  C   -0.000432  -0.000000
    87  C   -0.047512   0.000000
    88  C    0.120518  -0.000000
    89  O   -0.252339   0.000000
    90  C    0.044782   0.000000
    91  C    0.003553   0.000000
    92  C   -0.012063   0.000000
    93  C    0.107322  -0.000000
    94  F   -0.130989  -0.000000
    95  C   -0.052241   0.000000
    96  C    0.050854  -0.000000
    97  C   -0.001582  -0.000000
    98  C   -0.044672  -0.000000
    99  C    0.032044   0.000000
   100  C   -0.000280  -0.000000
   101  C    0.009250   0.000000
   102  C   -0.056500  -0.000000
   103  C    0.109225  -0.000000
   104  O   -0.251063   0.000000
   105  C    0.042930   0.000000
   106  H    0.010321  -0.000000
   107  H    0.018180   0.000000
   108  H    0.001122   0.000000
   109  H    0.004468   0.000000
   110  H    0.000569   0.000000
   111  H   -0.004439  -0.000000
   112  H    0.002584   0.000000
   113  H    0.062624  -0.000000
   114  H    0.054226   0.000000
   115  H    0.048834   0.000000
   116  H    0.009215   0.000000
   117  H    0.001991   0.000000
   118  H   -0.000213   0.000000
   119  H    0.000868   0.000000
   120  H   -0.004386  -0.000000
   121  H    0.002931  -0.000000
   122  H    0.063263   0.000000
   123  H    0.054090   0.000000
   124  H    0.049520   0.000000
   125  H    0.009708  -0.000000
   126  H    0.001515   0.000000
   127  H   -0.000674  -0.000000
   128  H    0.001395   0.000000
   129  H   -0.003932   0.000000
   130  H    0.001718   0.000000
   131  H    0.062947  -0.000000
   132  H    0.054073  -0.000000
   133  H    0.048247   0.000000
   134  H    0.014130  -0.000000
   135  H    0.000413  -0.000000
   136  H   -0.005034   0.000000
   137  H    0.001537   0.000000
   138  H   -0.003108  -0.000000
   139  H    0.001605  -0.000000
   140  H    0.061468   0.000000
   141  H    0.048282   0.000000
   142  H    0.054844   0.000000
   143  H    0.014181  -0.000000
   144  H    0.000522  -0.000000
   145  H   -0.005144  -0.000000
   146  H    0.001358  -0.000000
   147  H   -0.003238  -0.000000
   148  H    0.001723   0.000000
   149  H    0.062961  -0.000000
   150  H    0.054696  -0.000000
   151  H    0.048026  -0.000000
   152  H    0.014050  -0.000000
   153  H    0.001011   0.000000
   154  H   -0.005117  -0.000000
   155  H    0.001011   0.000000
   156  H   -0.003825  -0.000000
   157  H    0.001591  -0.000000
   158  H    0.062906   0.000000
   159  H    0.051638   0.000000
   160  H    0.051694  -0.000000
   161  H    0.010341   0.000000
   162  H    0.001289   0.000000
   163  H   -0.002339  -0.000000
   164  H   -0.000810   0.000000
   165  H    0.001041   0.000000
   166  H    0.005104  -0.000000
   167  H    0.006986  -0.000000
   168  H    0.051810  -0.000000
   169  H    0.049076  -0.000000
   170  H    0.063048  -0.000000
 Sum of Mulliken charges =  -0.00000  -0.00000

 Dipole moment (field-independent basis, Debye):
    X=              2.7476    Y=             -6.4393    Z=              1.7418  Tot=              7.2144
 Quadrupole moment (field-independent basis, Debye-Ang):
   XX=           -488.1755   YY=           -538.7773   ZZ=           -578.2684
   XY=             38.7957   XZ=             57.9955   YZ=              5.9642

 Normal termination of Gaussian 16 at Sat Jul 25 07:10:54 2020.
