 Gaussian 16, Revision A.03,
 Gaussian 16:  EM64L-G16RevA.03 25-Dec-2016

 ---------------------------------------------------------------
 #P uLC-wPBE/cc-pVDZ iop(3/107=0261800000, 3/108=0261800000) opt
 ---------------------------------------------------------------

 ---------------
 H52 C60 N10 O10
 ---------------
 Symbolic Z-matrix:
 Charge =  0 Multiplicity = 1

 SCF Done:  E(ULC-wPBE) =  -3614.36329217     A.U. after   15 cycles
 SCF Done:  E(ULC-wPBE) =  -3614.46171874     A.U. after   13 cycles
 SCF Done:  E(ULC-wPBE) =  -3614.56306915     A.U. after   13 cycles
 SCF Done:  E(ULC-wPBE) =  -3614.59633587     A.U. after   14 cycles
 SCF Done:  E(ULC-wPBE) =  -3614.60562017     A.U. after   14 cycles
 SCF Done:  E(ULC-wPBE) =  -3614.60879303     A.U. after   13 cycles
 SCF Done:  E(ULC-wPBE) =  -3614.61151401     A.U. after   16 cycles
 SCF Done:  E(ULC-wPBE) =  -3614.61321838     A.U. after   15 cycles
 SCF Done:  E(ULC-wPBE) =  -3614.61493228     A.U. after   15 cycles
 SCF Done:  E(ULC-wPBE) =  -3614.61550860     A.U. after   13 cycles
 SCF Done:  E(ULC-wPBE) =  -3614.61612694     A.U. after   13 cycles
 SCF Done:  E(ULC-wPBE) =  -3614.61621333     A.U. after   13 cycles
 SCF Done:  E(ULC-wPBE) =  -3614.61624338     A.U. after   12 cycles
 SCF Done:  E(ULC-wPBE) =  -3614.61625253     A.U. after   11 cycles
 SCF Done:  E(ULC-wPBE) =  -3614.61625615     A.U. after   11 cycles
 SCF Done:  E(ULC-wPBE) =  -3614.61625744     A.U. after   11 cycles
 SCF Done:  E(ULC-wPBE) =  -3614.61625773     A.U. after   10 cycles
 SCF Done:  E(ULC-wPBE) =  -3614.61625799     A.U. after    7 cycles
 SCF Done:  E(ULC-wPBE) =  -3614.61625790     A.U. after    6 cycles
 SCF Done:  E(ULC-wPBE) =  -3614.61625802     A.U. after    6 cycles
 Optimization completed.
    -- Stationary point found.

                         Standard orientation:
 ---------------------------------------------------------------------
 Center     Atomic      Atomic             Coordinates (Angstroms)
 Number     Number       Type             X           Y           Z
 ---------------------------------------------------------------------
      1          6           0      -20.330832   -1.288876   -0.597237
      2          6           0      -19.683549   -1.854309    0.504805
      3          6           0      -18.296130   -1.730805    0.591256
      4          8           0      -17.529222   -2.201546    1.609996
      5          6           0      -18.183508   -2.906466    2.648791
      6          6           0      -17.613926   -1.048533   -0.441962
      7          7           0      -18.240676   -0.504553   -1.484110
      8          6           0      -19.574403   -0.625440   -1.556791
      9          6           0      -16.125359   -0.871257   -0.381674
     10          7           0      -15.670131    0.375703   -0.273509
     11          6           0      -14.346489    0.572871   -0.248667
     12          6           0      -13.403983   -0.455635   -0.337544
     13          6           0      -13.884809   -1.769019   -0.456466
     14          6           0      -15.261729   -1.985688   -0.479981
     15          8           0      -15.857021   -3.198381   -0.621889
     16          6           0      -15.015819   -4.335112   -0.706921
     17          6           0      -11.946674   -0.172562   -0.305083
     18          6           0      -11.401314    0.902528   -1.023890
     19          6           0      -10.027572    1.131580   -0.960643
     20          8           0       -9.370077    2.113838   -1.630790
     21          6           0      -10.144479    2.997598   -2.422081
     22          6           0       -9.232621    0.270406   -0.171238
     23          7           0       -9.748166   -0.753614    0.506874
     24          6           0      -11.068360   -0.963004    0.442234
     25          6           0       -7.745546    0.449917   -0.100782
     26          7           0       -6.995408   -0.536021   -0.589203
     27          6           0       -5.663294   -0.423980   -0.517313
     28          6           0       -5.005499    0.671669    0.049738
     29          6           0       -5.797439    1.707650    0.569930
     30          6           0       -7.185373    1.600272    0.499164
     31          8           0       -8.065097    2.510926    0.992940
     32          6           0       -7.533556    3.676549    1.594714
     33          6           0       -3.522724    0.736348    0.101046
     34          6           0       -2.834800    1.918624   -0.215040
     35          6           0       -1.442298    1.929125   -0.154170
     36          8           0       -0.654586    2.992589   -0.464560
     37          6           0       -1.297171    4.192825   -0.852394
     38          6           0       -0.773105    0.745137    0.228573
     39          7           0       -1.423803   -0.378360    0.524079
     40          6           0       -2.761175   -0.378635    0.464239
     41          6           0        0.725106    0.693978    0.273733
     42          7           0        1.326107   -0.126547   -0.585461
     43          6           0        2.661841   -0.212191   -0.562406
     44          6           0        3.470931    0.515429    0.315059
     45          6           0        2.835939    1.369070    1.230842
     46          6           0        1.445184    1.459755    1.218623
     47          8           0        0.706093    2.229803    2.059262
     48          6           0        1.402235    3.016769    3.008812
     49          6           0        4.949555    0.384387    0.285608
     50          6           0        5.708618    0.295783    1.456548
     51          6           0        7.095673    0.176130    1.376907
     52          8           0        7.858000    0.162996    2.515178
     53          6           0        7.868670   -1.090433    3.200159
     54          6           0        7.699403    0.143516    0.106617
     55          7           0        6.980624    0.251957   -1.020597
     56          6           0        5.654302    0.363013   -0.927567
     57          6           0        9.177302   -0.028557   -0.044106
     58          7           0        9.737769   -1.067250    0.593102
     59          6           0       11.047006   -1.278709    0.447105
     60          6           0       11.892611   -0.472739   -0.330347
     61          6           0       11.304716    0.622283   -0.970982
     62          6           0        9.937054    0.855888   -0.831205
     63          8           0        9.361153    1.965462   -1.391921
     64          6           0        9.119147    1.855407   -2.795326
     65          6           0       13.343758   -0.765002   -0.445011
     66          6           0       14.299100    0.261104   -0.372012
     67          6           0       15.649823   -0.063639   -0.483452
     68          8           0       16.672681    0.829654   -0.448036
     69          6           0       16.344612    2.194274   -0.259570
     70          6           0       16.008392   -1.420014   -0.655880
     71          7           0       15.102074   -2.391642   -0.738825
     72          6           0       13.806453   -2.069844   -0.637082
     73          6           0       17.448161   -1.818892   -0.795428
     74          7           0       17.815860   -2.336400   -1.966470
     75          6           0       19.090423   -2.725952   -2.115953
     76          6           0       20.041752   -2.616098   -1.107910
     77          6           0       19.663205   -2.082417    0.127024
     78          6           0       18.338312   -1.676697    0.293194
     79          8           0       17.812674   -1.163101    1.436993
     80          6           0       18.684617   -0.998568    2.540167
     81          1           0      -21.419379   -1.364553   -0.699961
     82          1           0      -20.260468   -2.372343    1.277150
     83          1           0      -18.692618   -3.814951    2.269720
     84          1           0      -18.922101   -2.269693    3.175227
     85          1           0      -17.395963   -3.203573    3.358626
     86          1           0      -20.053778   -0.166046   -2.432209
     87          1           0      -14.017078    1.614727   -0.129331
     88          1           0      -13.175757   -2.596320   -0.558991
     89          1           0      -14.394264   -4.452903    0.202741
     90          1           0      -15.686362   -5.203149   -0.801913
     91          1           0      -14.354624   -4.290708   -1.594841
     92          1           0      -12.054858    1.523344   -1.644489
     93          1           0      -10.885882    3.550373   -1.811758
     94          1           0       -9.433481    3.713167   -2.863306
     95          1           0      -10.671607    2.463512   -3.237172
     96          1           0      -11.452748   -1.801300    1.040226
     97          1           0       -5.084460   -1.248108   -0.956397
     98          1           0       -5.317544    2.566028    1.050940
     99          1           0       -6.912959    3.434965    2.480436
    100          1           0       -6.928937    4.267952    0.878341
    101          1           0       -8.399658    4.275497    1.916231
    102          1           0       -3.396642    2.802107   -0.534797
    103          1           0       -0.493213    4.917970   -1.052583
    104          1           0       -1.949326    4.586855   -0.047458
    105          1           0       -1.898751    4.057367   -1.773057
    106          1           0       -3.257194   -1.318935    0.741277
    107          1           0        3.112535   -0.917130   -1.274689
    108          1           0        3.438488    1.961444    1.926785
    109          1           0        1.998543    2.390866    3.702001
    110          1           0        0.631415    3.553267    3.583430
    111          1           0        2.069788    3.753608    2.519589
    112          1           0        5.233305    0.318468    2.444737
    113          1           0        6.843895   -1.412279    3.474219
    114          1           0        8.353795   -1.860116    2.572392
    115          1           0        8.455127   -0.935414    4.120253
    116          1           0        5.110522    0.461776   -1.877573
    117          1           0       11.462130   -2.133947    0.998610
    118          1           0       11.900473    1.307404   -1.586309
    119          1           0        8.369038    1.066901   -2.988921
    120          1           0       10.052529    1.638750   -3.352751
    121          1           0        8.725439    2.832478   -3.119191
    122          1           0       13.973751    1.294006   -0.212020
    123          1           0       17.300622    2.740327   -0.261893
    124          1           0       15.706800    2.579863   -1.079623
    125          1           0       15.832144    2.362291    0.708447
    126          1           0       13.093944   -2.900927   -0.732452
    127          1           0       19.355115   -3.145369   -3.096305
    128          1           0       21.073006   -2.946700   -1.276411
    129          1           0       20.393534   -1.995853    0.937470
    130          1           0       18.073310   -0.573152    3.351168
    131          1           0       19.513991   -0.301599    2.306429
    132          1           0       19.107706   -1.965921    2.876732
 ---------------------------------------------------------------------

 Alpha  occ. eigenvalues --   -0.58627  -0.58470  -0.58223  -0.58210  -0.57948
 Alpha  occ. eigenvalues --   -0.57809  -0.57629  -0.57412  -0.57404  -0.57067
 Alpha  occ. eigenvalues --   -0.56057  -0.55916  -0.55876  -0.55809  -0.55668
 Alpha  occ. eigenvalues --   -0.55611  -0.55451  -0.55348  -0.55207  -0.55121
 Alpha  occ. eigenvalues --   -0.54716  -0.54320  -0.54171  -0.53862  -0.53388
 Alpha  occ. eigenvalues --   -0.51848  -0.51758  -0.51578  -0.51544  -0.51508
 Alpha  occ. eigenvalues --   -0.51404  -0.51376  -0.51343  -0.51205  -0.51135
 Alpha  occ. eigenvalues --   -0.51055  -0.50882  -0.50462  -0.50298  -0.49898
 Alpha  occ. eigenvalues --   -0.49830  -0.49658  -0.49476  -0.49307  -0.49207
 Alpha  occ. eigenvalues --   -0.49182  -0.48953  -0.48819  -0.48698  -0.48531
 Alpha  occ. eigenvalues --   -0.48164  -0.48107  -0.47891  -0.47723  -0.47613
 Alpha  occ. eigenvalues --   -0.47460  -0.47272  -0.46732  -0.46511  -0.46394
 Alpha  occ. eigenvalues --   -0.46029  -0.45658  -0.45498  -0.45257  -0.45228
 Alpha  occ. eigenvalues --   -0.44932  -0.43035  -0.42851  -0.42774  -0.42749
 Alpha  occ. eigenvalues --   -0.42697  -0.42531  -0.42381  -0.42223  -0.42161
 Alpha  occ. eigenvalues --   -0.42148  -0.41818  -0.41637  -0.41563  -0.41448
 Alpha  occ. eigenvalues --   -0.41364  -0.41205  -0.41008  -0.40757  -0.39261
 Alpha  occ. eigenvalues --   -0.38708  -0.38421  -0.37904  -0.37059  -0.36442
 Alpha  occ. eigenvalues --   -0.36127  -0.35989  -0.35074  -0.34641  -0.34452
 Alpha  occ. eigenvalues --   -0.34267  -0.33749  -0.33382  -0.33260  -0.33152
 Alpha  occ. eigenvalues --   -0.33082  -0.32751  -0.32291  -0.32155  -0.32104
 Alpha  occ. eigenvalues --   -0.31864  -0.31561  -0.31538  -0.31298  -0.31055
 Alpha  occ. eigenvalues --   -0.30856  -0.30536  -0.30013  -0.29405  -0.29008
 Alpha  occ. eigenvalues --   -0.28544
 Alpha virt. eigenvalues --    0.00494   0.01463   0.02471   0.03370   0.04414
 Alpha virt. eigenvalues --    0.04635   0.04979   0.05141   0.05367   0.05451
 Alpha virt. eigenvalues --    0.05624   0.06014   0.06284   0.06517   0.07111

  Beta  occ. eigenvalues --  -18.95121 -18.95065 -18.95000 -18.94958 -18.94821
  Beta  occ. eigenvalues --  -18.94811 -18.94676 -18.94660 -18.92533 -18.92525
  Beta  occ. eigenvalues --  -14.14472 -14.14454 -14.13666 -14.13570 -14.13531
  Beta  occ. eigenvalues --  -14.13448 -14.13443 -14.13360 -14.13291 -14.13171
  Beta  occ. eigenvalues --  -10.11219 -10.11113 -10.11109 -10.11027 -10.10912
  Beta  occ. eigenvalues --  -10.10857 -10.10806 -10.10741 -10.10728 -10.10719
  Beta  occ. eigenvalues --  -10.10652 -10.10609 -10.10540 -10.10522 -10.10504
  Beta  occ. eigenvalues --  -10.10383 -10.10347 -10.10230 -10.08432 -10.08432
  Beta  occ. eigenvalues --  -10.08430 -10.08409 -10.07920 -10.07805 -10.07797
  Beta  occ. eigenvalues --  -10.07719 -10.07700 -10.07689 -10.07638 -10.07631
  Beta  occ. eigenvalues --  -10.07532 -10.07486 -10.06872 -10.06840 -10.06803
  Beta  occ. eigenvalues --  -10.06723 -10.06638 -10.06572 -10.06554 -10.06547
  Beta  occ. eigenvalues --  -10.06518 -10.06495 -10.06405 -10.06392 -10.06355
  Beta  occ. eigenvalues --  -10.06325 -10.06296 -10.06286 -10.06270 -10.06212
  Beta  occ. eigenvalues --  -10.06160 -10.06071 -10.06027 -10.05967 -10.05859
  Beta  occ. eigenvalues --  -10.05752 -10.05732 -10.05677 -10.05254 -10.05144
  Beta  occ. eigenvalues --   -1.14290  -1.14127  -1.14099  -1.13869  -1.13811
  Beta  occ. eigenvalues --   -1.13612  -1.13587  -1.13386  -1.11721  -1.11530
  Beta  occ. eigenvalues --   -1.02335  -1.01965  -1.01776  -1.01742  -1.01528
  Beta  occ. eigenvalues --   -1.00899  -1.00186  -0.99906  -0.99854  -0.99627
  Beta  occ. eigenvalues --   -0.91312  -0.90934  -0.90689  -0.90262  -0.87519
  Beta  occ. eigenvalues --   -0.87383  -0.87199  -0.87070  -0.87013  -0.86811
  Beta  occ. eigenvalues --   -0.86729  -0.86584  -0.86423  -0.86138  -0.85736
  Beta  occ. eigenvalues --   -0.84437  -0.83653  -0.82909  -0.81955  -0.81430
  Beta  occ. eigenvalues --   -0.79441  -0.79161  -0.79113  -0.78905  -0.78690
  Beta  occ. eigenvalues --   -0.78297  -0.78116  -0.77697  -0.77331  -0.76756
  Beta  occ. eigenvalues --   -0.75743  -0.74561  -0.73427  -0.72292  -0.71301
  Beta  occ. eigenvalues --   -0.71199  -0.70632  -0.70328  -0.69837  -0.69456
  Beta  occ. eigenvalues --   -0.69255  -0.68864  -0.68746  -0.68569  -0.68401
  Beta  occ. eigenvalues --   -0.67991  -0.67484  -0.67024  -0.66767  -0.66616
  Beta  occ. eigenvalues --   -0.63282  -0.62910  -0.62843  -0.62481  -0.61967
  Beta  occ. eigenvalues --   -0.61780  -0.61031  -0.60900  -0.60678  -0.60442
  Beta  occ. eigenvalues --   -0.60261  -0.59820  -0.59428  -0.58869  -0.58770
  Beta  occ. eigenvalues --   -0.58627  -0.58470  -0.58223  -0.58210  -0.57948
  Beta  occ. eigenvalues --   -0.57809  -0.57629  -0.57412  -0.57404  -0.57067
  Beta  occ. eigenvalues --   -0.56057  -0.55916  -0.55876  -0.55809  -0.55668
  Beta  occ. eigenvalues --   -0.55611  -0.55451  -0.55348  -0.55207  -0.55121
  Beta  occ. eigenvalues --   -0.54716  -0.54320  -0.54171  -0.53862  -0.53388
  Beta  occ. eigenvalues --   -0.51848  -0.51758  -0.51578  -0.51544  -0.51508
  Beta  occ. eigenvalues --   -0.51404  -0.51376  -0.51343  -0.51205  -0.51135
  Beta  occ. eigenvalues --   -0.51055  -0.50882  -0.50462  -0.50298  -0.49898
  Beta  occ. eigenvalues --   -0.49830  -0.49658  -0.49476  -0.49307  -0.49207
  Beta  occ. eigenvalues --   -0.49182  -0.48953  -0.48819  -0.48698  -0.48531
  Beta  occ. eigenvalues --   -0.48164  -0.48107  -0.47891  -0.47723  -0.47613
  Beta  occ. eigenvalues --   -0.47460  -0.47272  -0.46732  -0.46511  -0.46394
  Beta  occ. eigenvalues --   -0.46029  -0.45658  -0.45498  -0.45257  -0.45228
  Beta  occ. eigenvalues --   -0.44932  -0.43035  -0.42851  -0.42774  -0.42749
  Beta  occ. eigenvalues --   -0.42697  -0.42531  -0.42381  -0.42223  -0.42161
  Beta  occ. eigenvalues --   -0.42148  -0.41818  -0.41637  -0.41563  -0.41448
  Beta  occ. eigenvalues --   -0.41364  -0.41205  -0.41008  -0.40757  -0.39261
  Beta  occ. eigenvalues --   -0.38708  -0.38421  -0.37904  -0.37059  -0.36442
  Beta  occ. eigenvalues --   -0.36127  -0.35989  -0.35074  -0.34641  -0.34452
  Beta  occ. eigenvalues --   -0.34267  -0.33749  -0.33382  -0.33260  -0.33152
  Beta  occ. eigenvalues --   -0.33082  -0.32751  -0.32291  -0.32155  -0.32104
  Beta  occ. eigenvalues --   -0.31864  -0.31561  -0.31538  -0.31298  -0.31055
  Beta  occ. eigenvalues --   -0.30856  -0.30536  -0.30013  -0.29405  -0.29008
  Beta  occ. eigenvalues --   -0.28544
  Beta virt. eigenvalues --    0.00494   0.01463   0.02471   0.03370   0.04414
  Beta virt. eigenvalues --    0.04635   0.04979   0.05141   0.05367   0.05451
  Beta virt. eigenvalues --    0.05624   0.06014   0.06284   0.06517   0.07111

 Mulliken charges and spin densities:
               1          2
     1  C   -0.030734  -0.000000
     2  C    0.002466  -0.000000
     3  C    0.129353   0.000000
     4  O   -0.235343   0.000000
     5  C    0.056446  -0.000000
     6  C    0.038866   0.000000
     7  N   -0.165786  -0.000000
     8  C    0.074038   0.000000
     9  C    0.048194  -0.000000
    10  N   -0.161365  -0.000000
    11  C    0.071004   0.000000
    12  C   -0.062338   0.000000
    13  C    0.017865  -0.000000
    14  C    0.135516  -0.000000
    15  O   -0.236732   0.000000
    16  C    0.057485  -0.000000
    17  C   -0.061936   0.000000
    18  C    0.018238  -0.000000
    19  C    0.135051  -0.000000
    20  O   -0.237766  -0.000000
    21  C    0.057755   0.000000
    22  C    0.044621   0.000000
    23  N   -0.160765   0.000000
    24  C    0.071840  -0.000000
    25  C    0.045476   0.000000
    26  N   -0.160768  -0.000000
    27  C    0.076544  -0.000000
    28  C   -0.064078  -0.000000
    29  C    0.016242   0.000000
    30  C    0.134970  -0.000000
    31  O   -0.235659   0.000000
    32  C    0.059182   0.000000
    33  C   -0.063894  -0.000000
    34  C    0.016709   0.000000
    35  C    0.134560  -0.000000
    36  O   -0.236802   0.000000
    37  C    0.059035   0.000000
    38  C    0.045308   0.000000
    39  N   -0.160157   0.000000
    40  C    0.076919  -0.000000
    41  C    0.045495  -0.000000
    42  N   -0.159177   0.000000
    43  C    0.075774  -0.000000
    44  C   -0.064486   0.000000
    45  C    0.017147   0.000000
    46  C    0.135972  -0.000000
    47  O   -0.236426   0.000000
    48  C    0.058235   0.000000
    49  C   -0.057603  -0.000000
    50  C    0.111217   0.000000
    51  C    0.038798  -0.000000
    52  O   -0.255093  -0.000000
    53  C    0.070385  -0.000000
    54  C    0.076363  -0.000000
    55  N   -0.186217   0.000000
    56  C    0.085938  -0.000000
    57  C    0.076299  -0.000000
    58  N   -0.186361   0.000000
    59  C    0.085874  -0.000000
    60  C   -0.057288   0.000000
    61  C    0.111155  -0.000000
    62  C    0.038751   0.000000
    63  O   -0.255164  -0.000000
    64  C    0.070432  -0.000000
    65  C   -0.064599   0.000000
    66  C    0.016737  -0.000000
    67  C    0.136258   0.000000
    68  O   -0.235692  -0.000000
    69  C    0.058164   0.000000
    70  C    0.049018   0.000000
    71  N   -0.159732   0.000000
    72  C    0.075103  -0.000000
    73  C    0.038909  -0.000000
    74  N   -0.164754  -0.000000
    75  C    0.074729   0.000000
    76  C   -0.030595   0.000000
    77  C    0.002595  -0.000000
    78  C    0.128965   0.000000
    79  O   -0.236220  -0.000000
    80  C    0.056414  -0.000000
    81  H   -0.008229   0.000000
    82  H   -0.004047   0.000000
    83  H    0.043464  -0.000000
    84  H    0.045705   0.000000
    85  H    0.054088   0.000000
    86  H   -0.001076   0.000000
    87  H   -0.008171   0.000000
    88  H   -0.006718  -0.000000
    89  H    0.045340  -0.000000
    90  H    0.052759   0.000000
    91  H    0.049517   0.000000
    92  H   -0.006820  -0.000000
    93  H    0.045252   0.000000
    94  H    0.051571  -0.000000
    95  H    0.050035  -0.000000
    96  H   -0.007054  -0.000000
    97  H    0.000853  -0.000000
    98  H   -0.014895   0.000000
    99  H    0.047921  -0.000000
   100  H    0.039628  -0.000000
   101  H    0.054373  -0.000000
   102  H   -0.014150   0.000000
   103  H    0.053916  -0.000000
   104  H    0.039859  -0.000000
   105  H    0.048800  -0.000000
   106  H    0.001125   0.000000
   107  H   -0.000392   0.000000
   108  H   -0.009472  -0.000000
   109  H    0.045868  -0.000000
   110  H    0.052884  -0.000000
   111  H    0.046560  -0.000000
   112  H   -0.013251   0.000000
   113  H    0.025529  -0.000000
   114  H    0.046533  -0.000000
   115  H    0.043891   0.000000
   116  H    0.002388   0.000000
   117  H    0.002380  -0.000000
   118  H   -0.013219   0.000000
   119  H    0.046424   0.000000
   120  H    0.025531   0.000000
   121  H    0.043759   0.000000
   122  H   -0.009693   0.000000
   123  H    0.053679  -0.000000
   124  H    0.045216  -0.000000
   125  H    0.046396   0.000000
   126  H   -0.000994  -0.000000
   127  H    0.000040  -0.000000
   128  H   -0.007625   0.000000
   129  H   -0.003776   0.000000
   130  H    0.053643  -0.000000
   131  H    0.043357  -0.000000
   132  H    0.046416   0.000000
 Sum of Mulliken charges =  -0.00000   0.00000

 Dipole moment (field-independent basis, Debye):
    X=              1.1092    Y=              7.6163    Z=              5.6285  Tot=              9.5351
 Quadrupole moment (field-independent basis, Debye-Ang):
   XX=           -319.7949   YY=           -406.3516   ZZ=           -431.6900
   XY=             75.0102   XZ=             20.8181   YZ=            -11.8717

 Normal termination of Gaussian 16 at Fri Jul 24 23:01:28 2020.
