 Gaussian 16, Revision A.03,
 Gaussian 16:  EM64L-G16RevA.03 25-Dec-2016

 ---------------------------------------------------------------
 #P uLC-wPBE/cc-pVDZ iop(3/107=0140200000, 3/108=0140200000) opt
 ---------------------------------------------------------------

 ----------------
 H11 C12 S1 O2 F1
 ----------------
 Symbolic Z-matrix:
 Charge =  0 Multiplicity = 1

 SCF Done:  E(ULC-wPBE) =  -1111.52704324     A.U. after   15 cycles
 SCF Done:  E(ULC-wPBE) =  -1111.55839401     A.U. after   13 cycles
 SCF Done:  E(ULC-wPBE) =  -1111.56833542     A.U. after   13 cycles
 SCF Done:  E(ULC-wPBE) =  -1111.56910691     A.U. after   13 cycles
 SCF Done:  E(ULC-wPBE) =  -1111.56995788     A.U. after   14 cycles
 SCF Done:  E(ULC-wPBE) =  -1111.56983911     A.U. after   14 cycles
 SCF Done:  E(ULC-wPBE) =  -1111.57024952     A.U. after   13 cycles
 SCF Done:  E(ULC-wPBE) =  -1111.57067465     A.U. after   12 cycles
 SCF Done:  E(ULC-wPBE) =  -1111.57071432     A.U. after   12 cycles
 SCF Done:  E(ULC-wPBE) =  -1111.57072112     A.U. after   11 cycles
 SCF Done:  E(ULC-wPBE) =  -1111.57072374     A.U. after    9 cycles
 SCF Done:  E(ULC-wPBE) =  -1111.57072826     A.U. after   10 cycles
 SCF Done:  E(ULC-wPBE) =  -1111.57072966     A.U. after   10 cycles
 SCF Done:  E(ULC-wPBE) =  -1111.57073084     A.U. after    9 cycles
 SCF Done:  E(ULC-wPBE) =  -1111.57073111     A.U. after    8 cycles
 Optimization completed.
    -- Stationary point found.

                         Standard orientation:
 ---------------------------------------------------------------------
 Center     Atomic      Atomic             Coordinates (Angstroms)
 Number     Number       Type             X           Y           Z
 ---------------------------------------------------------------------
      1          6           0        3.151708   -1.613707   -0.139573
      2          6           0        2.018620   -2.298599   -0.582668
      3          6           0        0.799053   -1.616322   -0.607712
      4          9           0       -0.286745   -2.276045   -1.073834
      5          6           0        0.647963   -0.282049   -0.191393
      6          6           0        1.827936    0.386917    0.241808
      7          8           0        1.648627    1.687994    0.617141
      8          6           0        2.790584    2.417884    1.048728
      9          6           0        3.067716   -0.274197    0.267484
     10          6           0       -0.670689    0.371375   -0.213276
     11          6           0       -1.868507   -0.124197    0.299032
     12          8           0       -1.878250   -1.305945    0.980725
     13          6           0       -3.151828   -1.795455    1.380522
     14          6           0       -2.992402    0.731507    0.056006
     15          6           0       -2.635736    1.870250   -0.632964
     16         16           0       -0.945745    1.920902   -0.979492
     17          1           0        4.123622   -2.125369   -0.113562
     18          1           0        2.054949   -3.341651   -0.920080
     19          1           0        2.424125    3.430873    1.291330
     20          1           0        3.561059    2.487863    0.250518
     21          1           0        3.248092    1.967038    1.955917
     22          1           0        3.969937    0.245841    0.608989
     23          1           0       -2.964485   -2.765475    1.874503
     24          1           0       -3.650212   -1.112036    2.103043
     25          1           0       -3.824091   -1.954509    0.509255
     26          1           0       -4.017720    0.522771    0.379328
     27          1           0       -3.282183    2.697791   -0.941761
 ---------------------------------------------------------------------

 The electronic state is 1-A.
 Alpha  occ. eigenvalues --  -88.16879 -24.35248 -18.88159 -18.87142 -10.05206
 Alpha  occ. eigenvalues --  -10.04038 -10.03425 -10.02813 -10.02772  -9.99877
 Alpha  occ. eigenvalues --   -9.99519  -9.99140  -9.98574  -9.97745  -9.97720
 Alpha  occ. eigenvalues --   -9.97435  -7.77140  -5.79210  -5.78758  -5.78363
 Alpha  occ. eigenvalues --   -1.18699  -1.06218  -1.05209  -0.87804  -0.85501
 Alpha  occ. eigenvalues --   -0.78420  -0.75852  -0.74865  -0.72910  -0.71177
 Alpha  occ. eigenvalues --   -0.68639  -0.63613  -0.61713  -0.58542  -0.57360
 Alpha  occ. eigenvalues --   -0.56233  -0.54314  -0.52548  -0.50604  -0.49576
 Alpha  occ. eigenvalues --   -0.49418  -0.48573  -0.47981  -0.46736  -0.46065
 Alpha  occ. eigenvalues --   -0.45531  -0.43969  -0.42410  -0.41876  -0.41539
 Alpha  occ. eigenvalues --   -0.39953  -0.39912  -0.38015  -0.37107  -0.36048
 Alpha  occ. eigenvalues --   -0.35614  -0.35060  -0.34478  -0.29837  -0.27174
 Alpha  occ. eigenvalues --   -0.26386  -0.23682
 Alpha virt. eigenvalues --    0.01241   0.04805   0.04960   0.08320   0.10365
 Alpha virt. eigenvalues --    0.11271   0.11656   0.12207   0.13761   0.14163
 Alpha virt. eigenvalues --    0.15365   0.16057   0.16763   0.17314   0.17460

  Beta  occ. eigenvalues --  -88.16879 -24.35248 -18.88159 -18.87142 -10.05206
  Beta  occ. eigenvalues --  -10.04038 -10.03425 -10.02813 -10.02772  -9.99877
  Beta  occ. eigenvalues --   -9.99519  -9.99140  -9.98574  -9.97745  -9.97720
  Beta  occ. eigenvalues --   -9.97435  -7.77140  -5.79210  -5.78758  -5.78363
  Beta  occ. eigenvalues --   -1.18699  -1.06218  -1.05209  -0.87804  -0.85501
  Beta  occ. eigenvalues --   -0.78420  -0.75852  -0.74865  -0.72910  -0.71177
  Beta  occ. eigenvalues --   -0.68639  -0.63613  -0.61713  -0.58542  -0.57360
  Beta  occ. eigenvalues --   -0.56233  -0.54314  -0.52548  -0.50604  -0.49576
  Beta  occ. eigenvalues --   -0.49418  -0.48573  -0.47981  -0.46736  -0.46065
  Beta  occ. eigenvalues --   -0.45531  -0.43969  -0.42410  -0.41876  -0.41539
  Beta  occ. eigenvalues --   -0.39953  -0.39912  -0.38015  -0.37107  -0.36048
  Beta  occ. eigenvalues --   -0.35614  -0.35060  -0.34478  -0.29837  -0.27174
  Beta  occ. eigenvalues --   -0.26386  -0.23682
  Beta virt. eigenvalues --    0.01241   0.04805   0.04960   0.08320   0.10365
  Beta virt. eigenvalues --    0.11271   0.11656   0.12207   0.13761   0.14163
  Beta virt. eigenvalues --    0.15365   0.16057   0.16763   0.17314   0.17460

 Mulliken charges and spin densities:
               1          2
     1  C    0.035684   0.000000
     2  C    0.011433  -0.000000
     3  C    0.103677  -0.000000
     4  F   -0.120539   0.000000
     5  C   -0.016987  -0.000000
     6  C    0.104647   0.000000
     7  O   -0.229159  -0.000000
     8  C    0.063229   0.000000
     9  C   -0.028712  -0.000000
    10  C   -0.184297   0.000000
    11  C    0.156058   0.000000
    12  O   -0.230022  -0.000000
    13  C    0.060396   0.000000
    14  C    0.018715  -0.000000
    15  C   -0.122979   0.000000
    16  S    0.165497  -0.000000
    17  H   -0.016915   0.000000
    18  H   -0.014583  -0.000000
    19  H    0.050926  -0.000000
    20  H    0.044156  -0.000000
    21  H    0.044808   0.000000
    22  H   -0.022431   0.000000
    23  H    0.047110   0.000000
    24  H    0.038846  -0.000000
    25  H    0.040951  -0.000000
    26  H   -0.014882  -0.000000
    27  H    0.015376   0.000000
 Sum of Mulliken charges =  -0.00000   0.00000

 Dipole moment (field-independent basis, Debye):
    X=              0.3189    Y=              0.8055    Z=              1.3554  Tot=              1.6086
 Quadrupole moment (field-independent basis, Debye-Ang):
   XX=            -78.2740   YY=            -91.0413   ZZ=           -100.3416
   XY=              3.9186   XZ=             -0.4542   YZ=             -0.5905

 Normal termination of Gaussian 16 at Fri Jul 24 20:45:19 2020.
