 Gaussian 16, Revision A.03,
 Gaussian 16:  EM64L-G16RevA.03 25-Dec-2016

 ---------------------------------------------------------------
 #P uLC-wPBE/cc-pVDZ iop(3/107=0451900000, 3/108=0451900000) opt
 ---------------------------------------------------------------

 ---------------
 H42 C50 S10 O10
 ---------------
 Symbolic Z-matrix:
 Charge =  0 Multiplicity = 1

 SCF Done:  E(ULC-wPBE) =  -6661.59871614     A.U. after   16 cycles
 SCF Done:  E(ULC-wPBE) =  -6661.68466378     A.U. after   14 cycles
 SCF Done:  E(ULC-wPBE) =  -6661.76689616     A.U. after   14 cycles
 SCF Done:  E(ULC-wPBE) =  -6661.78666444     A.U. after   15 cycles
 SCF Done:  E(ULC-wPBE) =  -6661.79062112     A.U. after   13 cycles
 SCF Done:  E(ULC-wPBE) =  -6661.79229844     A.U. after   13 cycles
 SCF Done:  E(ULC-wPBE) =  -6661.79357364     A.U. after   15 cycles
 SCF Done:  E(ULC-wPBE) =  -6661.79627095     A.U. after   13 cycles
 SCF Done:  E(ULC-wPBE) =  -6661.79920698     A.U. after   15 cycles
 SCF Done:  E(ULC-wPBE) =  -6661.79999542     A.U. after   13 cycles
 SCF Done:  E(ULC-wPBE) =  -6661.80313102     A.U. after   10 cycles
 SCF Done:  E(ULC-wPBE) =  -6661.80313149     A.U. after    7 cycles
 SCF Done:  E(ULC-wPBE) =  -6661.80313171     A.U. after    7 cycles
 SCF Done:  E(ULC-wPBE) =  -6661.80313178     A.U. after    7 cycles
 SCF Done:  E(ULC-wPBE) =  -6661.80313181     A.U. after    7 cycles
 SCF Done:  E(ULC-wPBE) =  -6661.80313196     A.U. after    7 cycles
 SCF Done:  E(ULC-wPBE) =  -6661.80313199     A.U. after    7 cycles
 SCF Done:  E(ULC-wPBE) =  -6661.80313205     A.U. after    5 cycles
 SCF Done:  E(ULC-wPBE) =  -6661.80313204     A.U. after    5 cycles
 SCF Done:  E(ULC-wPBE) =  -6661.80313207     A.U. after    5 cycles
 Optimization completed.
    -- Stationary point found.

                         Standard orientation:
 ---------------------------------------------------------------------
 Center     Atomic      Atomic             Coordinates (Angstroms)
 Number     Number       Type             X           Y           Z
 ---------------------------------------------------------------------
      1          6           0       18.248655   -0.998512   -0.769589
      2          6           0       17.953062   -0.404522    0.415142
      3          6           0       16.569061   -0.087063    0.507747
      4          8           0       15.951602    0.509290    1.552979
      5          6           0       16.736610    0.829071    2.672480
      6          6           0       15.845345   -0.444569   -0.602243
      7         16           0       16.884465   -1.179603   -1.772082
      8          6           0       14.420693   -0.258572   -0.817292
      9          6           0       13.692587   -0.625478   -1.921542
     10          8           0       14.305975   -1.228522   -2.963653
     11          6           0       13.510983   -1.586431   -4.065425
     12          6           0       12.314085   -0.300302   -1.833290
     13          6           0       12.006519    0.311745   -0.653427
     14         16           0       13.385461    0.481685    0.352289
     15          6           0       10.704022    0.793812   -0.213863
     16          6           0       10.439291    1.805601    0.662860
     17          6           0        9.042963    1.999984    0.866467
     18          8           0        8.477189    2.901474    1.690721
     19          6           0        9.340575    3.766539    2.381275
     20          6           0        8.268279    1.144066    0.130500
     21         16           0        9.258662    0.080470   -0.800037
     22          6           0        6.815352    1.076298    0.089536
     23          6           0        5.938492    2.097944   -0.159649
     24          8           0        6.387536    3.336483   -0.436155
     25          6           0        5.422879    4.338916   -0.624377
     26          6           0        4.575674    1.685508   -0.124632
     27          6           0        4.439799    0.354141    0.141688
     28         16           0        5.963120   -0.394772    0.382577
     29          6           0        3.206203   -0.416300    0.232123
     30          6           0        3.035712   -1.749847   -0.000998
     31          6           0        1.682139   -2.162875    0.159504
     32          8           0        1.200484   -3.403597   -0.040495
     33          6           0        2.129534   -4.406238   -0.361190
     34          6           0        0.847664   -1.139119    0.521004
     35         16           0        1.730794    0.334629    0.678311
     36          6           0       -0.584807   -1.206139    0.766372
     37          6           0       -1.249187   -2.059960    1.605701
     38          8           0       -0.573716   -2.957432    2.347303
     39          6           0       -1.331895   -3.820313    3.154399
     40          6           0       -2.658350   -1.853177    1.612414
     41          6           0       -3.042031   -0.838687    0.783932
     42         16           0       -1.696617   -0.154337   -0.030363
     43          6           0       -4.389347   -0.336196    0.553325
     44          6           0       -4.755806    0.919088    0.163331
     45          6           0       -6.163489    1.051439    0.047954
     46          8           0       -6.834614    2.168684   -0.309100
     47          6           0       -6.074802    3.302545   -0.642527
     48          6           0       -6.855527   -0.095276    0.350822
     49         16           0       -5.750365   -1.357834    0.767436
     50          6           0       -8.293912   -0.282680    0.333819
     51          6           0       -8.984572   -1.435001    0.617195
     52          8           0       -8.312053   -2.555706    0.960792
     53          6           0       -9.067707   -3.711681    1.219044
     54          6           0      -10.393364   -1.298394    0.520715
     55          6           0      -10.762492   -0.034988    0.159521
     56         16           0       -9.400565    0.981549   -0.075068
     57          6           0      -12.111437    0.478545   -0.029763
     58          6           0      -12.540872    1.766748    0.106293
     59          6           0      -13.930870    1.895159   -0.148919
     60          8           0      -14.651837    3.036623   -0.088386
     61          6           0      -13.968884    4.217953    0.245430
     62          6           0      -14.547585    0.712440   -0.472545
     63         16           0      -13.390836   -0.572322   -0.479247
     64          6           0      -15.952563    0.508989   -0.780623
     65          6           0      -16.564727   -0.672835   -1.115613
     66          8           0      -15.840127   -1.813089   -1.183558
     67          6           0      -16.513124   -2.986417   -1.560130
     68          6           0      -17.960374   -0.544812   -1.361818
     69          6           0      -18.377039    0.738198   -1.206766
     70         16           0      -17.112419    1.790917   -0.769035
     71          1           0       19.221672   -1.344381   -1.104784
     72          1           0       18.689792   -0.203075    1.186703
     73          1           0       17.528619    1.548026    2.417388
     74          1           0       16.063473    1.285841    3.403139
     75          1           0       17.189734   -0.069069    3.116456
     76          1           0       13.049069   -0.704453   -4.531955
     77          1           0       12.725413   -2.300565   -3.779529
     78          1           0       14.179560   -2.062318   -4.787877
     79          1           0       11.580608   -0.485602   -2.612589
     80          1           0       11.223434    2.393276    1.131379
     81          1           0        9.934229    4.382944    1.690545
     82          1           0       10.018781    3.216148    3.049826
     83          1           0        8.705291    4.421327    2.984201
     84          1           0        4.791318    4.465517    0.266977
     85          1           0        5.972265    5.267053   -0.804815
     86          1           0        4.783530    4.130540   -1.494878
     87          1           0        3.725741    2.332643   -0.321544
     88          1           0        3.850341   -2.398698   -0.309725
     89          1           0        2.636290   -4.201382   -1.315701
     90          1           0        1.561154   -5.335575   -0.456317
     91          1           0        2.883109   -4.528110    0.430415
     92          1           0       -2.025195   -4.429365    2.556195
     93          1           0       -1.900158   -3.269039    3.917968
     94          1           0       -0.619209   -4.481943    3.654538
     95          1           0       -3.363658   -2.403062    2.228825
     96          1           0       -4.040032    1.717318   -0.010052
     97          1           0       -6.788495    4.082576   -0.921083
     98          1           0       -5.477412    3.652163    0.211762
     99          1           0       -5.409837    3.104097   -1.495252
    100          1           0       -9.653694   -4.013441    0.339134
    101          1           0       -8.351752   -4.502474    1.458828
    102          1           0       -9.743088   -3.568152    2.074675
    103          1           0      -11.110528   -2.086437    0.730619
    104          1           0      -11.885215    2.580589    0.401686
    105          1           0      -13.524582    4.156207    1.249282
    106          1           0      -13.182146    4.448490   -0.487238
    107          1           0      -14.712647    5.019294    0.233846
    108          1           0      -17.303685   -3.246275   -0.841244
    109          1           0      -15.764990   -3.783817   -1.569559
    110          1           0      -16.950785   -2.895053   -2.564736
    111          1           0      -18.619802   -1.361341   -1.639520
    112          1           0      -19.385707    1.119717   -1.332289
 ---------------------------------------------------------------------

 Alpha  occ. eigenvalues --  -10.20625 -10.20583 -10.20510 -10.20468 -10.20402
 Alpha  occ. eigenvalues --  -10.20360 -10.20331 -10.20323 -10.20317 -10.20191
 Alpha  occ. eigenvalues --  -10.20176 -10.19842 -10.19813 -10.19809 -10.19789
 Alpha  occ. eigenvalues --  -10.19130 -10.19111 -10.19059 -10.19026 -10.18716
 Alpha  occ. eigenvalues --  -10.18633 -10.18627 -10.18536 -10.17724 -10.17632
 Alpha  occ. eigenvalues --  -10.17627 -10.17521 -10.17453 -10.17402 -10.17262
 Alpha  occ. eigenvalues --  -10.17205 -10.17151 -10.17137 -10.17089 -10.17055
 Alpha  occ. eigenvalues --  -10.15240 -10.15234 -10.15228 -10.15162 -10.15142
 Alpha  occ. eigenvalues --  -10.15102 -10.15089 -10.15087 -10.15040 -10.15030
 Alpha  occ. eigenvalues --   -7.95231  -7.95212  -7.95163  -7.95123  -7.95095
 Alpha  occ. eigenvalues --   -7.95025  -7.94996  -7.94917  -7.94850  -7.94796
 Alpha  occ. eigenvalues --   -5.96538  -5.96519  -5.96470  -5.96430  -5.96425
 Alpha  occ. eigenvalues --   -5.96353  -5.96325  -5.96246  -5.96166  -5.96112
 Alpha  occ. eigenvalues --   -5.96002  -5.95982  -5.95934  -5.95895  -5.95864
 Alpha  occ. eigenvalues --   -5.95793  -5.95765  -5.95686  -5.95602  -5.95548
 Alpha  occ. eigenvalues --   -5.95547  -5.95529  -5.95478  -5.95438  -5.95403
 Alpha  occ. eigenvalues --   -5.95335  -5.95303  -5.95226  -5.95187  -5.95134
 Alpha  occ. eigenvalues --   -1.23762  -1.23646  -1.23638  -1.23592  -1.23521
 Alpha  occ. eigenvalues --   -1.23469  -1.23325  -1.23319  -1.22892  -1.22885
 Alpha  occ. eigenvalues --   -1.08390  -1.08143  -1.07849  -1.07511  -1.06592
 Alpha  occ. eigenvalues --   -1.06328  -1.05753  -1.05130  -1.04602  -1.04273
 Alpha  occ. eigenvalues --   -0.96799  -0.96105  -0.95086  -0.93971  -0.92830
 Alpha  occ. eigenvalues --   -0.92295  -0.91843  -0.91813  -0.91522  -0.91206
 Alpha  occ. eigenvalues --   -0.91065  -0.90856  -0.90615  -0.90347  -0.90215
 Alpha  occ. eigenvalues --   -0.88631  -0.88531  -0.88382  -0.88151  -0.88136
 Alpha  occ. eigenvalues --   -0.85608  -0.85448  -0.85436  -0.85323  -0.84727
 Alpha  occ. eigenvalues --   -0.84603  -0.83805  -0.82703  -0.81397  -0.80142
 Alpha  occ. eigenvalues --   -0.77275  -0.76084  -0.75302  -0.74159  -0.73812
 Alpha  occ. eigenvalues --   -0.73354  -0.72885  -0.72029  -0.71543  -0.70755
 Alpha  occ. eigenvalues --   -0.70379  -0.69815  -0.69499  -0.69379  -0.69319
 Alpha  occ. eigenvalues --   -0.69089  -0.69009  -0.68890  -0.68121  -0.67940
 Alpha  occ. eigenvalues --   -0.67824  -0.67183  -0.66191  -0.65644  -0.65352
 Alpha  occ. eigenvalues --   -0.63419  -0.63094  -0.62599  -0.62194  -0.62110
 Alpha  occ. eigenvalues --   -0.62048  -0.61841  -0.61731  -0.61600  -0.61589
 Alpha  occ. eigenvalues --   -0.61545  -0.61460  -0.61379  -0.61342  -0.61196
 Alpha  occ. eigenvalues --   -0.60662  -0.60582  -0.60421  -0.59864  -0.59450
 Alpha  occ. eigenvalues --   -0.58800  -0.58203  -0.57930  -0.57751  -0.57438
 Alpha  occ. eigenvalues --   -0.57216  -0.57151  -0.56966  -0.56687  -0.56608
 Alpha  occ. eigenvalues --   -0.56328  -0.56029  -0.55672  -0.55398  -0.55157
 Alpha  occ. eigenvalues --   -0.54943  -0.54862  -0.54529  -0.54422  -0.54020
 Alpha  occ. eigenvalues --   -0.53848  -0.53500  -0.53328  -0.53274  -0.53098
 Alpha  occ. eigenvalues --   -0.52749  -0.52489  -0.52113  -0.51925  -0.51701
 Alpha  occ. eigenvalues --   -0.51440  -0.50991  -0.50355  -0.50169  -0.49272
 Alpha  occ. eigenvalues --   -0.49085  -0.48873  -0.48705  -0.48267  -0.47731
 Alpha  occ. eigenvalues --   -0.47548  -0.47394  -0.47243  -0.47081  -0.46831
 Alpha  occ. eigenvalues --   -0.46706  -0.46507  -0.46259  -0.46206  -0.45996
 Alpha  occ. eigenvalues --   -0.45855  -0.45695  -0.45568  -0.45518  -0.45354
 Alpha  occ. eigenvalues --   -0.45218  -0.44716  -0.44526  -0.44444  -0.44249
 Alpha  occ. eigenvalues --   -0.44227  -0.44171  -0.44022  -0.43946  -0.43796
 Alpha  occ. eigenvalues --   -0.43542  -0.40579  -0.39818  -0.38524  -0.37668
 Alpha  occ. eigenvalues --   -0.35968  -0.35338  -0.34838  -0.34595  -0.34384
 Alpha  occ. eigenvalues --   -0.34371  -0.33855  -0.33842  -0.33737  -0.32953
 Alpha  occ. eigenvalues --   -0.32541  -0.30973  -0.29117  -0.27696  -0.26287
 Alpha  occ. eigenvalues --   -0.25130
 Alpha virt. eigenvalues --    0.00967   0.01988   0.03309   0.04656   0.07681
 Alpha virt. eigenvalues --    0.07922   0.10501   0.11015   0.11868   0.12844
 Alpha virt. eigenvalues --    0.13269   0.13537   0.13926   0.14216   0.14341

  Beta  occ. eigenvalues --  -88.34356 -88.34338 -88.34292 -88.34288 -88.34247
  Beta  occ. eigenvalues --  -88.34221 -88.34191 -88.34112 -88.34038 -88.33984
  Beta  occ. eigenvalues --  -19.04036 -19.04030 -19.03947 -19.03890 -19.03888
  Beta  occ. eigenvalues --  -19.03842 -19.03207 -19.03180 -19.03179 -19.03172
  Beta  occ. eigenvalues --  -10.20691 -10.20678 -10.20673 -10.20665 -10.20650
  Beta  occ. eigenvalues --  -10.20625 -10.20583 -10.20510 -10.20468 -10.20402
  Beta  occ. eigenvalues --  -10.20360 -10.20331 -10.20323 -10.20317 -10.20191
  Beta  occ. eigenvalues --  -10.20176 -10.19842 -10.19813 -10.19809 -10.19789
  Beta  occ. eigenvalues --  -10.19130 -10.19111 -10.19059 -10.19026 -10.18716
  Beta  occ. eigenvalues --  -10.18633 -10.18627 -10.18536 -10.17724 -10.17632
  Beta  occ. eigenvalues --  -10.17627 -10.17521 -10.17453 -10.17402 -10.17262
  Beta  occ. eigenvalues --  -10.17205 -10.17151 -10.17137 -10.17089 -10.17055
  Beta  occ. eigenvalues --  -10.15240 -10.15234 -10.15228 -10.15162 -10.15142
  Beta  occ. eigenvalues --  -10.15102 -10.15089 -10.15087 -10.15040 -10.15030
  Beta  occ. eigenvalues --   -7.95231  -7.95212  -7.95163  -7.95123  -7.95095
  Beta  occ. eigenvalues --   -7.95025  -7.94996  -7.94917  -7.94850  -7.94796
  Beta  occ. eigenvalues --   -5.96538  -5.96519  -5.96470  -5.96430  -5.96425
  Beta  occ. eigenvalues --   -5.96353  -5.96325  -5.96246  -5.96166  -5.96112
  Beta  occ. eigenvalues --   -5.96002  -5.95982  -5.95934  -5.95895  -5.95864
  Beta  occ. eigenvalues --   -5.95793  -5.95765  -5.95686  -5.95602  -5.95548
  Beta  occ. eigenvalues --   -5.95547  -5.95529  -5.95478  -5.95438  -5.95403
  Beta  occ. eigenvalues --   -5.95335  -5.95303  -5.95226  -5.95187  -5.95134
  Beta  occ. eigenvalues --   -1.23762  -1.23646  -1.23638  -1.23592  -1.23521
  Beta  occ. eigenvalues --   -1.23469  -1.23325  -1.23319  -1.22892  -1.22885
  Beta  occ. eigenvalues --   -1.08390  -1.08143  -1.07849  -1.07511  -1.06592
  Beta  occ. eigenvalues --   -1.06328  -1.05753  -1.05130  -1.04602  -1.04273
  Beta  occ. eigenvalues --   -0.96799  -0.96105  -0.95086  -0.93971  -0.92830
  Beta  occ. eigenvalues --   -0.92295  -0.91843  -0.91813  -0.91522  -0.91206
  Beta  occ. eigenvalues --   -0.91065  -0.90856  -0.90615  -0.90347  -0.90215
  Beta  occ. eigenvalues --   -0.88631  -0.88531  -0.88382  -0.88151  -0.88136
  Beta  occ. eigenvalues --   -0.85608  -0.85448  -0.85436  -0.85323  -0.84727
  Beta  occ. eigenvalues --   -0.84603  -0.83805  -0.82703  -0.81397  -0.80142
  Beta  occ. eigenvalues --   -0.77275  -0.76084  -0.75302  -0.74159  -0.73812
  Beta  occ. eigenvalues --   -0.73354  -0.72885  -0.72029  -0.71543  -0.70755
  Beta  occ. eigenvalues --   -0.70379  -0.69815  -0.69499  -0.69379  -0.69319
  Beta  occ. eigenvalues --   -0.69089  -0.69009  -0.68890  -0.68121  -0.67940
  Beta  occ. eigenvalues --   -0.67824  -0.67183  -0.66191  -0.65644  -0.65352
  Beta  occ. eigenvalues --   -0.63419  -0.63094  -0.62599  -0.62194  -0.62110
  Beta  occ. eigenvalues --   -0.62048  -0.61841  -0.61731  -0.61600  -0.61589
  Beta  occ. eigenvalues --   -0.61545  -0.61460  -0.61379  -0.61342  -0.61196
  Beta  occ. eigenvalues --   -0.60662  -0.60582  -0.60421  -0.59864  -0.59450
  Beta  occ. eigenvalues --   -0.58800  -0.58203  -0.57930  -0.57751  -0.57438
  Beta  occ. eigenvalues --   -0.57216  -0.57151  -0.56966  -0.56687  -0.56608
  Beta  occ. eigenvalues --   -0.56328  -0.56029  -0.55672  -0.55398  -0.55157
  Beta  occ. eigenvalues --   -0.54943  -0.54862  -0.54529  -0.54422  -0.54020
  Beta  occ. eigenvalues --   -0.53848  -0.53500  -0.53328  -0.53274  -0.53098
  Beta  occ. eigenvalues --   -0.52749  -0.52489  -0.52113  -0.51925  -0.51701
  Beta  occ. eigenvalues --   -0.51440  -0.50991  -0.50355  -0.50169  -0.49272
  Beta  occ. eigenvalues --   -0.49085  -0.48873  -0.48705  -0.48267  -0.47731
  Beta  occ. eigenvalues --   -0.47548  -0.47394  -0.47243  -0.47081  -0.46831
  Beta  occ. eigenvalues --   -0.46706  -0.46507  -0.46259  -0.46206  -0.45996
  Beta  occ. eigenvalues --   -0.45855  -0.45695  -0.45568  -0.45518  -0.45354
  Beta  occ. eigenvalues --   -0.45218  -0.44716  -0.44526  -0.44444  -0.44249
  Beta  occ. eigenvalues --   -0.44227  -0.44171  -0.44022  -0.43946  -0.43796
  Beta  occ. eigenvalues --   -0.43542  -0.40579  -0.39818  -0.38524  -0.37668
  Beta  occ. eigenvalues --   -0.35968  -0.35338  -0.34838  -0.34595  -0.34384
  Beta  occ. eigenvalues --   -0.34371  -0.33855  -0.33842  -0.33737  -0.32953
  Beta  occ. eigenvalues --   -0.32541  -0.30973  -0.29117  -0.27696  -0.26287
  Beta  occ. eigenvalues --   -0.25130
  Beta virt. eigenvalues --    0.00967   0.01988   0.03309   0.04656   0.07681
  Beta virt. eigenvalues --    0.07922   0.10501   0.11015   0.11868   0.12844
  Beta virt. eigenvalues --    0.13269   0.13537   0.13926   0.14216   0.14341

 Mulliken charges and spin densities:
               1          2
     1  C   -0.149804   0.000000
     2  C   -0.000057  -0.000000
     3  C    0.137550   0.000000
     4  O   -0.273655  -0.000000
     5  C    0.039085   0.000000
     6  C   -0.171490  -0.000000
     7  S    0.183808  -0.000000
     8  C   -0.151113   0.000000
     9  C    0.156797   0.000000
    10  O   -0.274000   0.000000
    11  C    0.038348   0.000000
    12  C   -0.004613  -0.000000
    13  C   -0.140324  -0.000000
    14  S    0.187793  -0.000000
    15  C   -0.126223   0.000000
    16  C   -0.027015  -0.000000
    17  C    0.193453  -0.000000
    18  O   -0.244782   0.000000
    19  C    0.032872   0.000000
    20  C   -0.201877   0.000000
    21  S    0.179304   0.000000
    22  C   -0.200502  -0.000000
    23  C    0.190764   0.000000
    24  O   -0.244810   0.000000
    25  C    0.032488   0.000000
    26  C   -0.025239  -0.000000
    27  C   -0.129503   0.000000
    28  S    0.185132   0.000000
    29  C   -0.129415   0.000000
    30  C   -0.024732  -0.000000
    31  C    0.191077   0.000000
    32  O   -0.244641  -0.000000
    33  C    0.032307  -0.000000
    34  C   -0.199929   0.000000
    35  S    0.182657  -0.000000
    36  C   -0.200951  -0.000000
    37  C    0.192152   0.000000
    38  O   -0.244743  -0.000000
    39  C    0.032702   0.000000
    40  C   -0.026894  -0.000000
    41  C   -0.127627   0.000000
    42  S    0.180734  -0.000000
    43  C   -0.138237  -0.000000
    44  C   -0.002896   0.000000
    45  C    0.153101   0.000000
    46  O   -0.274229  -0.000000
    47  C    0.039071  -0.000000
    48  C   -0.158576   0.000000
    49  S    0.189059  -0.000000
    50  C   -0.160199  -0.000000
    51  C    0.154389   0.000000
    52  O   -0.274674  -0.000000
    53  C    0.039506   0.000000
    54  C   -0.005047  -0.000000
    55  C   -0.135053   0.000000
    56  S    0.187287  -0.000000
    57  C   -0.137536  -0.000000
    58  C   -0.006755   0.000000
    59  C    0.157631  -0.000000
    60  O   -0.274083   0.000000
    61  C    0.038786  -0.000000
    62  C   -0.151819   0.000000
    63  S    0.185670  -0.000000
    64  C   -0.171094  -0.000000
    65  C    0.137116   0.000000
    66  O   -0.273591  -0.000000
    67  C    0.039197   0.000000
    68  C   -0.000050  -0.000000
    69  C   -0.150084  -0.000000
    70  S    0.183178  -0.000000
    71  H    0.045054   0.000000
    72  H    0.016162  -0.000000
    73  H    0.051845  -0.000000
    74  H    0.066035  -0.000000
    75  H    0.052770  -0.000000
    76  H    0.054222  -0.000000
    77  H    0.053947  -0.000000
    78  H    0.067073   0.000000
    79  H    0.021184  -0.000000
    80  H    0.023438   0.000000
    81  H    0.051888  -0.000000
    82  H    0.050685   0.000000
    83  H    0.063579  -0.000000
    84  H    0.052040  -0.000000
    85  H    0.063627   0.000000
    86  H    0.051115   0.000000
    87  H    0.022842  -0.000000
    88  H    0.023648   0.000000
    89  H    0.051445   0.000000
    90  H    0.063744  -0.000000
    91  H    0.052445   0.000000
    92  H    0.051265  -0.000000
    93  H    0.051469  -0.000000
    94  H    0.063872  -0.000000
    95  H    0.023618   0.000000
    96  H    0.020248   0.000000
    97  H    0.066356   0.000000
    98  H    0.053885   0.000000
    99  H    0.054944   0.000000
   100  H    0.054280  -0.000000
   101  H    0.066060  -0.000000
   102  H    0.054160  -0.000000
   103  H    0.020673  -0.000000
   104  H    0.020584   0.000000
   105  H    0.053880   0.000000
   106  H    0.053266  -0.000000
   107  H    0.066777   0.000000
   108  H    0.051639  -0.000000
   109  H    0.065697  -0.000000
   110  H    0.052643  -0.000000
   111  H    0.015961  -0.000000
   112  H    0.044789  -0.000000
 Sum of Mulliken charges =  -0.00000  -0.00000

 Dipole moment (field-independent basis, Debye):
    X=              0.0759    Y=             -0.0653    Z=              1.1658  Tot=              1.1700
 Quadrupole moment (field-independent basis, Debye-Ang):
   XX=           -371.9162   YY=           -396.4676   ZZ=           -452.0090
   XY=             32.7793   XZ=             17.1039   YZ=              5.8623

 Normal termination of Gaussian 16 at Sun Jul 26 04:20:48 2020.
