 Gaussian 16, Revision A.03,
 Gaussian 16:  EM64L-G16RevA.03 25-Dec-2016

 ---------------------------------------------------------------
 #P uLC-wPBE/cc-pVDZ iop(3/107=0086900000, 3/108=0086900000) opt
 ---------------------------------------------------------------

 --------------
 H57 C65 N5 O10
 --------------
 Symbolic Z-matrix:
 Charge =  0 Multiplicity = 1

 SCF Done:  E(ULC-wPBE) =  -3533.47212490     A.U. after   16 cycles
 SCF Done:  E(ULC-wPBE) =  -3533.56590104     A.U. after   14 cycles
 SCF Done:  E(ULC-wPBE) =  -3533.65887093     A.U. after   14 cycles
 SCF Done:  E(ULC-wPBE) =  -3533.68685072     A.U. after   15 cycles
 SCF Done:  E(ULC-wPBE) =  -3533.69670474     A.U. after   15 cycles
 SCF Done:  E(ULC-wPBE) =  -3533.70088550     A.U. after   15 cycles
 SCF Done:  E(ULC-wPBE) =  -3533.70390413     A.U. after   17 cycles
 SCF Done:  E(ULC-wPBE) =  -3533.70558963     A.U. after   15 cycles
 SCF Done:  E(ULC-wPBE) =  -3533.70700523     A.U. after   13 cycles
 SCF Done:  E(ULC-wPBE) =  -3533.70830091     A.U. after   15 cycles
 SCF Done:  E(ULC-wPBE) =  -3533.71310755     A.U. after   12 cycles
 SCF Done:  E(ULC-wPBE) =  -3533.71310877     A.U. after   10 cycles
 SCF Done:  E(ULC-wPBE) =  -3533.71310948     A.U. after   10 cycles
 SCF Done:  E(ULC-wPBE) =  -3533.71310955     A.U. after    7 cycles
 SCF Done:  E(ULC-wPBE) =  -3533.71310967     A.U. after    7 cycles
 SCF Done:  E(ULC-wPBE) =  -3533.71310962     A.U. after    6 cycles
 SCF Done:  E(ULC-wPBE) =  -3533.71310965     A.U. after    6 cycles
 SCF Done:  E(ULC-wPBE) =  -3533.71310968     A.U. after    6 cycles
 SCF Done:  E(ULC-wPBE) =  -3533.71310972     A.U. after    6 cycles
 SCF Done:  E(ULC-wPBE) =  -3533.71310978     A.U. after    6 cycles
 Optimization completed.
    -- Stationary point found.

                         Standard orientation:
 ---------------------------------------------------------------------
 Center     Atomic      Atomic             Coordinates (Angstroms)
 Number     Number       Type             X           Y           Z
 ---------------------------------------------------------------------
      1          6           0      -20.668455   -0.840161    0.426698
      2          6           0      -20.108628    0.351279   -0.056698
      3          6           0      -18.709923    0.456224   -0.137595
      4          8           0      -18.043447    1.521717   -0.666268
      5          6           0      -18.819129    2.633207   -1.102733
      6          6           0      -17.915460   -0.636504    0.321055
      7          7           0      -18.470798   -1.788197    0.744224
      8          6           0      -19.812817   -1.883814    0.792372
      9          6           0      -16.426043   -0.603569    0.277757
     10          6           0      -15.737371   -1.678725   -0.308439
     11          6           0      -14.340235   -1.714274   -0.374886
     12          6           0      -13.579552   -0.659711    0.168627
     13          6           0      -14.255697    0.410122    0.796213
     14          6           0      -15.659461    0.438152    0.866228
     15          8           0      -16.364932    1.403026    1.530608
     16          6           0      -15.635585    2.475024    2.116412
     17          6           0      -12.097812   -0.665145    0.097351
     18          6           0      -11.357329   -1.858331    0.224163
     19          6           0       -9.957397   -1.819338    0.153624
     20          8           0       -9.152867   -2.919432    0.259434
     21          6           0       -9.785386   -4.190648    0.394671
     22          6           0       -9.308490   -0.563245   -0.036551
     23          7           0      -10.021986    0.571357   -0.174708
     24          6           0      -11.361550    0.518054   -0.111426
     25          6           0       -7.824385   -0.445359   -0.082810
     26          6           0       -7.007145   -1.043597    0.900240
     27          6           0       -5.619369   -0.882031    0.901076
     28          6           0       -4.980849   -0.125993   -0.107461
     29          6           0       -5.788472    0.454342   -1.106035
     30          6           0       -7.183875    0.301813   -1.102907
     31          8           0       -7.919258    0.800997   -2.157934
     32          6           0       -8.115949    2.220201   -2.128088
     33          6           0       -3.506631    0.036405   -0.125787
     34          6           0       -2.900467    1.234149   -0.558502
     35          6           0       -1.502535    1.343605   -0.558571
     36          8           0       -0.816413    2.457359   -0.959472
     37          6           0       -1.576820    3.558036   -1.451250
     38          6           0       -0.724131    0.236254   -0.110340
     39          7           0       -1.304542   -0.910194    0.289792
     40          6           0       -2.643121   -1.001728    0.279269
     41          6           0        0.764961    0.306901   -0.052699
     42          6           0        1.414308    1.339154    0.645063
     43          6           0        2.808133    1.390955    0.765557
     44          6           0        3.606660    0.396399    0.167812
     45          6           0        2.972150   -0.638307   -0.554117
     46          6           0        1.571651   -0.687779   -0.673401
     47          8           0        0.907501   -1.645412   -1.382728
     48          6           0        1.677574   -2.667784   -2.003965
     49          6           0        5.085652    0.431098    0.279406
     50          6           0        5.725429    0.853733    1.462693
     51          6           0        7.126047    0.870952    1.528688
     52          8           0        7.837826    1.267356    2.626682
     53          6           0        7.104551    1.743291    3.753423
     54          6           0        7.877772    0.449901    0.391967
     55          7           0        7.261239    0.063227   -0.741977
     56          6           0        5.920124    0.056592   -0.792609
     57          6           0        9.366761    0.411239    0.405906
     58          6           0       10.077933   -0.200135    1.460605
     59          6           0       11.471714   -0.297161    1.448909
     60          6           0       12.223167    0.241082    0.380258
     61          6           0       11.521012    0.873867   -0.665095
     62          6           0       10.120172    0.963353   -0.660342
     63          8           0        9.487366    1.682358   -1.652961
     64          6           0        9.396240    1.005109   -2.912922
     65          6           0       13.704198    0.159961    0.368890
     66          6           0       14.426834   -0.005870   -0.831473
     67          6           0       15.827424   -0.077450   -0.796420
     68          8           0       16.625734   -0.161281   -1.895763
     69          6           0       15.994115   -0.294510   -3.164879
     70          6           0       16.482953   -0.035972    0.469372
     71          7           0       15.795876    0.166911    1.609452
     72          6           0       14.457243    0.267312    1.555532
     73          6           0       17.964907   -0.148199    0.588148
     74          6           0       18.676416    0.837147    1.301923
     75          6           0       20.070707    0.782327    1.423013
     76          6           0       20.781198   -0.275016    0.833810
     77          6           0       20.088141   -1.285431    0.153044
     78          6           0       18.690355   -1.229985    0.034538
     79          8           0       18.042741   -2.257348   -0.633958
     80          6           0       17.466821   -3.227484    0.248490
     81          1           0      -21.759480   -0.953887    0.501804
     82          1           0      -20.757927    1.174857   -0.380640
     83          1           0      -19.518966    2.353972   -1.921424
     84          1           0      -19.400529    3.082843   -0.267595
     85          1           0      -18.094651    3.375181   -1.483490
     86          1           0      -20.215872   -2.846123    1.147971
     87          1           0      -16.335685   -2.498802   -0.728931
     88          1           0      -13.838488   -2.548477   -0.884957
     89          1           0      -13.664334    1.200224    1.275194
     90          1           0      -16.391361    3.137534    2.575631
     91          1           0      -15.059258    3.047126    1.355981
     92          1           0      -14.936573    2.119486    2.905513
     93          1           0      -11.885620   -2.803979    0.401173
     94          1           0       -8.965898   -4.930369    0.427929
     95          1           0      -10.379697   -4.258784    1.332394
     96          1           0      -10.447010   -4.413152   -0.470960
     97          1           0      -11.888726    1.474587   -0.260133
     98          1           0       -7.482432   -1.629281    1.698236
     99          1           0       -5.022129   -1.325947    1.709771
    100          1           0       -5.332425    0.995563   -1.947945
    101          1           0       -7.148684    2.769545   -2.077383
    102          1           0       -8.755522    2.495152   -1.262909
    103          1           0       -8.629823    2.481624   -3.072401
    104          1           0       -3.531139    2.076932   -0.869959
    105          1           0       -2.252388    3.975359   -0.672009
    106          1           0       -2.182306    3.274806   -2.340319
    107          1           0       -0.838635    4.326447   -1.742436
    108          1           0       -3.060276   -1.973146    0.591619
    109          1           0        0.800574    2.122692    1.109870
    110          1           0        3.279464    2.225947    1.302669
    111          1           0        3.590083   -1.425845   -1.002835
    112          1           0        2.250203   -3.263682   -1.259428
    113          1           0        2.385320   -2.255840   -2.757553
    114          1           0        0.948221   -3.324905   -2.510600
    115          1           0        5.117403    1.142756    2.329590
    116          1           0        6.481777    2.627176    3.493458
    117          1           0        6.450872    0.953452    4.184821
    118          1           0        7.862501    2.037583    4.500976
    119          1           0        5.476680   -0.242676   -1.756275
    120          1           0        9.514182   -0.632127    2.298030
    121          1           0       11.985938   -0.820960    2.266848
    122          1           0       12.064254    1.365692   -1.485218
    123          1           0        8.729552    0.121948   -2.819910
    124          1           0       10.397428    0.690233   -3.284866
    125          1           0        8.959531    1.731507   -3.624057
    126          1           0       13.884035   -0.086196   -1.782305
    127          1           0       15.367292   -1.211818   -3.215780
    128          1           0       15.364595    0.589815   -3.409544
    129          1           0       16.813870   -0.372639   -3.900766
    130          1           0       13.950667    0.462358    2.514680
    131          1           0       18.104387    1.656822    1.759181
    132          1           0       20.604640    1.570764    1.972513
    133          1           0       21.876910   -0.322238    0.916181
    134          1           0       20.612623   -2.139825   -0.297844
    135          1           0       18.249781   -3.744677    0.848373
    136          1           0       16.950380   -3.967519   -0.391775
    137          1           0       16.730638   -2.767435    0.944417
 ---------------------------------------------------------------------

 Alpha  occ. eigenvalues --   -0.44174  -0.43887  -0.43561  -0.43400  -0.43291
 Alpha  occ. eigenvalues --   -0.43050  -0.42908  -0.42774  -0.42641  -0.42562
 Alpha  occ. eigenvalues --   -0.42173  -0.41920  -0.41825  -0.41598  -0.41525
 Alpha  occ. eigenvalues --   -0.41481  -0.41134  -0.40977  -0.40846  -0.40685
 Alpha  occ. eigenvalues --   -0.40542  -0.40524  -0.40272  -0.40138  -0.40054
 Alpha  occ. eigenvalues --   -0.39807  -0.39618  -0.39394  -0.38815  -0.38719
 Alpha  occ. eigenvalues --   -0.38580  -0.38095  -0.37805  -0.37472  -0.37306
 Alpha  occ. eigenvalues --   -0.37170  -0.37018  -0.36979  -0.36862  -0.36640
 Alpha  occ. eigenvalues --   -0.36027  -0.35816  -0.35788  -0.35679  -0.35590
 Alpha  occ. eigenvalues --   -0.34988  -0.34833  -0.34756  -0.34493  -0.34465
 Alpha  occ. eigenvalues --   -0.34363  -0.34321  -0.34137  -0.34005  -0.33785
 Alpha  occ. eigenvalues --   -0.33771  -0.33380  -0.33252  -0.33146  -0.32901
 Alpha  occ. eigenvalues --   -0.32789  -0.32588  -0.32522  -0.30999  -0.30655
 Alpha  occ. eigenvalues --   -0.30280  -0.29647  -0.29330  -0.27284  -0.27154
 Alpha  occ. eigenvalues --   -0.27041  -0.26946  -0.26802  -0.26590  -0.26517
 Alpha  occ. eigenvalues --   -0.26291  -0.25566  -0.25459  -0.25389  -0.25183
 Alpha  occ. eigenvalues --   -0.25145  -0.24999  -0.24780  -0.24755  -0.24695
 Alpha  occ. eigenvalues --   -0.24579  -0.24119  -0.23972  -0.23110  -0.22690
 Alpha  occ. eigenvalues --   -0.22057
 Alpha virt. eigenvalues --   -0.03972  -0.03356  -0.02225  -0.01279  -0.00510
 Alpha virt. eigenvalues --    0.00328   0.00471   0.00701   0.00737   0.01230
 Alpha virt. eigenvalues --    0.01401   0.01429   0.01675   0.02040   0.02147

  Beta  occ. eigenvalues --  -18.85923 -18.85784 -18.85764 -18.85637 -18.85150
  Beta  occ. eigenvalues --  -18.85094 -18.84504 -18.82267 -18.82206 -18.82108
  Beta  occ. eigenvalues --  -14.04351 -14.04177 -14.04066 -14.03819 -14.03588
  Beta  occ. eigenvalues --  -10.01456 -10.01353 -10.01296 -10.01106 -10.01076
  Beta  occ. eigenvalues --  -10.00989 -10.00896 -10.00876 -10.00851 -10.00843
  Beta  occ. eigenvalues --  -10.00587 -10.00502 -10.00329  -9.99898  -9.99778
  Beta  occ. eigenvalues --   -9.99638  -9.99186  -9.98676  -9.98602  -9.98525
  Beta  occ. eigenvalues --   -9.98431  -9.98303  -9.98163  -9.98122  -9.98022
  Beta  occ. eigenvalues --   -9.97206  -9.97100  -9.97021  -9.96700  -9.96685
  Beta  occ. eigenvalues --   -9.96664  -9.96486  -9.96416  -9.96413  -9.96299
  Beta  occ. eigenvalues --   -9.96247  -9.96226  -9.96214  -9.96159  -9.96095
  Beta  occ. eigenvalues --   -9.96063  -9.95929  -9.95858  -9.95777  -9.95562
  Beta  occ. eigenvalues --   -9.95487  -9.95427  -9.95303  -9.95046  -9.95007
  Beta  occ. eigenvalues --   -9.95007  -9.94963  -9.94915  -9.94908  -9.94746
  Beta  occ. eigenvalues --   -9.94698  -9.94679  -9.94627  -9.94616  -9.94583
  Beta  occ. eigenvalues --   -9.94553  -9.94351  -9.94349  -9.94175  -9.94169
  Beta  occ. eigenvalues --   -1.03787  -1.03705  -1.03564  -1.03411  -1.03116
  Beta  occ. eigenvalues --   -1.02898  -1.02477  -1.00262  -1.00103  -1.00069
  Beta  occ. eigenvalues --   -0.90503  -0.90330  -0.90300  -0.90038  -0.89993
  Beta  occ. eigenvalues --   -0.83141  -0.82961  -0.82713  -0.82507  -0.81467
  Beta  occ. eigenvalues --   -0.79021  -0.78698  -0.78173  -0.77901  -0.77394
  Beta  occ. eigenvalues --   -0.76392  -0.76213  -0.75863  -0.75480  -0.74883
  Beta  occ. eigenvalues --   -0.73482  -0.73001  -0.72531  -0.72403  -0.72186
  Beta  occ. eigenvalues --   -0.72030  -0.71697  -0.71601  -0.70810  -0.70367
  Beta  occ. eigenvalues --   -0.69202  -0.68915  -0.68765  -0.68447  -0.68071
  Beta  occ. eigenvalues --   -0.67776  -0.67406  -0.66105  -0.66019  -0.65771
  Beta  occ. eigenvalues --   -0.64673  -0.63630  -0.62521  -0.61487  -0.60964
  Beta  occ. eigenvalues --   -0.60511  -0.60231  -0.60067  -0.59945  -0.59853
  Beta  occ. eigenvalues --   -0.58806  -0.58516  -0.57959  -0.57826  -0.57466
  Beta  occ. eigenvalues --   -0.57288  -0.57123  -0.56734  -0.56346  -0.56062
  Beta  occ. eigenvalues --   -0.54048  -0.53666  -0.53250  -0.53008  -0.52819
  Beta  occ. eigenvalues --   -0.51787  -0.51538  -0.51204  -0.50989  -0.50823
  Beta  occ. eigenvalues --   -0.50535  -0.50488  -0.50180  -0.49958  -0.49850
  Beta  occ. eigenvalues --   -0.49271  -0.48935  -0.48514  -0.48322  -0.48145
  Beta  occ. eigenvalues --   -0.47789  -0.47410  -0.47193  -0.47098  -0.46924
  Beta  occ. eigenvalues --   -0.46874  -0.46734  -0.46685  -0.46390  -0.46339
  Beta  occ. eigenvalues --   -0.46241  -0.46187  -0.45911  -0.45854  -0.45786
  Beta  occ. eigenvalues --   -0.45219  -0.44627  -0.44480  -0.44475  -0.44341
  Beta  occ. eigenvalues --   -0.44174  -0.43887  -0.43561  -0.43400  -0.43291
  Beta  occ. eigenvalues --   -0.43050  -0.42908  -0.42774  -0.42641  -0.42562
  Beta  occ. eigenvalues --   -0.42173  -0.41920  -0.41825  -0.41598  -0.41525
  Beta  occ. eigenvalues --   -0.41481  -0.41134  -0.40977  -0.40846  -0.40685
  Beta  occ. eigenvalues --   -0.40542  -0.40524  -0.40272  -0.40138  -0.40054
  Beta  occ. eigenvalues --   -0.39807  -0.39618  -0.39394  -0.38815  -0.38719
  Beta  occ. eigenvalues --   -0.38580  -0.38095  -0.37805  -0.37472  -0.37306
  Beta  occ. eigenvalues --   -0.37170  -0.37018  -0.36979  -0.36862  -0.36640
  Beta  occ. eigenvalues --   -0.36027  -0.35816  -0.35788  -0.35679  -0.35590
  Beta  occ. eigenvalues --   -0.34988  -0.34833  -0.34756  -0.34493  -0.34465
  Beta  occ. eigenvalues --   -0.34363  -0.34321  -0.34137  -0.34005  -0.33785
  Beta  occ. eigenvalues --   -0.33771  -0.33380  -0.33252  -0.33146  -0.32901
  Beta  occ. eigenvalues --   -0.32789  -0.32588  -0.32522  -0.30999  -0.30655
  Beta  occ. eigenvalues --   -0.30280  -0.29647  -0.29330  -0.27284  -0.27154
  Beta  occ. eigenvalues --   -0.27041  -0.26946  -0.26802  -0.26590  -0.26517
  Beta  occ. eigenvalues --   -0.26291  -0.25566  -0.25459  -0.25389  -0.25183
  Beta  occ. eigenvalues --   -0.25145  -0.24999  -0.24780  -0.24755  -0.24695
  Beta  occ. eigenvalues --   -0.24579  -0.24119  -0.23972  -0.23110  -0.22690
  Beta  occ. eigenvalues --   -0.22057
  Beta virt. eigenvalues --   -0.03972  -0.03356  -0.02225  -0.01279  -0.00510
  Beta virt. eigenvalues --    0.00328   0.00471   0.00701   0.00737   0.01230
  Beta virt. eigenvalues --    0.01401   0.01429   0.01675   0.02040   0.02147

 Mulliken charges and spin densities:
               1          2
     1  C   -0.018695   0.000000
     2  C    0.017023  -0.000000
     3  C    0.122448  -0.000000
     4  O   -0.220832   0.000000
     5  C    0.060388  -0.000000
     6  C    0.011084   0.000000
     7  N   -0.181315  -0.000000
     8  C    0.075749  -0.000000
     9  C    0.035276  -0.000000
    10  C    0.058963  -0.000000
    11  C   -0.001620  -0.000000
    12  C    0.027688  -0.000000
    13  C   -0.038112   0.000000
    14  C    0.112712  -0.000000
    15  O   -0.230464  -0.000000
    16  C    0.066223  -0.000000
    17  C   -0.035051  -0.000000
    18  C    0.029116  -0.000000
    19  C    0.112063   0.000000
    20  O   -0.231154  -0.000000
    21  C    0.062757  -0.000000
    22  C    0.032643   0.000000
    23  N   -0.181950  -0.000000
    24  C    0.073807   0.000000
    25  C    0.047370  -0.000000
    26  C    0.047843  -0.000000
    27  C    0.002814   0.000000
    28  C    0.041203   0.000000
    29  C    0.037884  -0.000000
    30  C    0.030401   0.000000
    31  O   -0.248839  -0.000000
    32  C    0.077286  -0.000000
    33  C   -0.031029  -0.000000
    34  C    0.023955   0.000000
    35  C    0.115257   0.000000
    36  O   -0.229718  -0.000000
    37  C    0.063352  -0.000000
    38  C    0.017859  -0.000000
    39  N   -0.165863   0.000000
    40  C    0.064927   0.000000
    41  C    0.026139   0.000000
    42  C    0.063100  -0.000000
    43  C   -0.003491  -0.000000
    44  C    0.025844   0.000000
    45  C   -0.039555  -0.000000
    46  C    0.109163   0.000000
    47  O   -0.216650   0.000000
    48  C    0.066604   0.000000
    49  C   -0.034184  -0.000000
    50  C    0.030327   0.000000
    51  C    0.111677  -0.000000
    52  O   -0.231291   0.000000
    53  C    0.062975   0.000000
    54  C    0.032686  -0.000000
    55  N   -0.181942   0.000000
    56  C    0.074104  -0.000000
    57  C    0.047269   0.000000
    58  C    0.047950  -0.000000
    59  C    0.002537   0.000000
    60  C    0.042831  -0.000000
    61  C    0.037679   0.000000
    62  C    0.030298  -0.000000
    63  O   -0.249027   0.000000
    64  C    0.077056  -0.000000
    65  C   -0.030472   0.000000
    66  C    0.019648   0.000000
    67  C    0.130779   0.000000
    68  O   -0.215587   0.000000
    69  C    0.065451   0.000000
    70  C   -0.023521   0.000000
    71  N   -0.174840  -0.000000
    72  C    0.061274   0.000000
    73  C    0.073115   0.000000
    74  C    0.038043  -0.000000
    75  C    0.030584   0.000000
    76  C    0.035321  -0.000000
    77  C    0.049598   0.000000
    78  C    0.023030  -0.000000
    79  O   -0.256637   0.000000
    80  C    0.070610  -0.000000
    81  H   -0.019632   0.000000
    82  H   -0.016308   0.000000
    83  H    0.044289  -0.000000
    84  H    0.043160   0.000000
    85  H    0.049663   0.000000
    86  H   -0.008175  -0.000000
    87  H   -0.036700  -0.000000
    88  H   -0.037012   0.000000
    89  H   -0.031237   0.000000
    90  H    0.044150   0.000000
    91  H    0.041273   0.000000
    92  H    0.046879   0.000000
    93  H   -0.022817  -0.000000
    94  H    0.052363   0.000000
    95  H    0.047855   0.000000
    96  H    0.046272   0.000000
    97  H   -0.016027  -0.000000
    98  H   -0.036381  -0.000000
    99  H   -0.032179  -0.000000
   100  H   -0.033488  -0.000000
   101  H    0.013577   0.000000
   102  H    0.034120   0.000000
   103  H    0.037686   0.000000
   104  H   -0.027621   0.000000
   105  H    0.045544  -0.000000
   106  H    0.044124   0.000000
   107  H    0.051048  -0.000000
   108  H   -0.013048   0.000000
   109  H   -0.040837  -0.000000
   110  H   -0.039824   0.000000
   111  H   -0.031416   0.000000
   112  H    0.045926  -0.000000
   113  H    0.039371  -0.000000
   114  H    0.048168  -0.000000
   115  H   -0.024006  -0.000000
   116  H    0.045524   0.000000
   117  H    0.047635   0.000000
   118  H    0.052175  -0.000000
   119  H   -0.014966  -0.000000
   120  H   -0.036410   0.000000
   121  H   -0.033191   0.000000
   122  H   -0.033181  -0.000000
   123  H    0.034713   0.000000
   124  H    0.013986   0.000000
   125  H    0.037746  -0.000000
   126  H   -0.026250   0.000000
   127  H    0.044544  -0.000000
   128  H    0.041046  -0.000000
   129  H    0.051976  -0.000000
   130  H   -0.011958   0.000000
   131  H   -0.033154  -0.000000
   132  H   -0.024502   0.000000
   133  H   -0.023289  -0.000000
   134  H   -0.030359  -0.000000
   135  H    0.025693   0.000000
   136  H    0.038853   0.000000
   137  H    0.042667  -0.000000
 Sum of Mulliken charges =  -0.00000   0.00000

 Dipole moment (field-independent basis, Debye):
    X=             -8.6811    Y=              2.4618    Z=             -1.0737  Tot=              9.0871
 Quadrupole moment (field-independent basis, Debye-Ang):
   XX=           -418.0154   YY=           -417.1957   ZZ=           -436.9989
   XY=            -60.8111   XZ=            -14.4848   YZ=              3.7210

 Normal termination of Gaussian 16 at Sun Jul 26 23:43:12 2020.
