 Gaussian 16, Revision A.03,
 Gaussian 16:  EM64L-G16RevA.03 25-Dec-2016

 ---------------------------------------------------------------
 #P uLC-wPBE/cc-pVDZ iop(3/107=0181700000, 3/108=0181700000) opt
 ---------------------------------------------------------------

 --------------
 H37 C70 N14 F7
 --------------
 Symbolic Z-matrix:
 Charge =  0 Multiplicity = 1

 SCF Done:  E(ULC-wPBE) =  -4151.49956373     A.U. after   15 cycles
 SCF Done:  E(ULC-wPBE) =  -4151.59722848     A.U. after   13 cycles
 SCF Done:  E(ULC-wPBE) =  -4151.69135074     A.U. after   14 cycles
 SCF Done:  E(ULC-wPBE) =  -4151.72132870     A.U. after   15 cycles
 SCF Done:  E(ULC-wPBE) =  -4151.72846947     A.U. after   15 cycles
 SCF Done:  E(ULC-wPBE) =  -4151.73161476     A.U. after   16 cycles
 SCF Done:  E(ULC-wPBE) =  -4151.73297509     A.U. after   17 cycles
 SCF Done:  E(ULC-wPBE) =  -4151.73350538     A.U. after   13 cycles
 SCF Done:  E(ULC-wPBE) =  -4151.73368170     A.U. after   14 cycles
 SCF Done:  E(ULC-wPBE) =  -4151.73373491     A.U. after   12 cycles
 SCF Done:  E(ULC-wPBE) =  -4151.73386919     A.U. after    8 cycles
 SCF Done:  E(ULC-wPBE) =  -4151.73386930     A.U. after    8 cycles
 SCF Done:  E(ULC-wPBE) =  -4151.73386951     A.U. after    8 cycles
 SCF Done:  E(ULC-wPBE) =  -4151.73386956     A.U. after   10 cycles
 SCF Done:  E(ULC-wPBE) =  -4151.73386951     A.U. after   11 cycles
 SCF Done:  E(ULC-wPBE) =  -4151.73386946     A.U. after   11 cycles
 SCF Done:  E(ULC-wPBE) =  -4151.73386966     A.U. after    8 cycles
 SCF Done:  E(ULC-wPBE) =  -4151.73386987     A.U. after   10 cycles
 SCF Done:  E(ULC-wPBE) =  -4151.73387007     A.U. after    8 cycles
 SCF Done:  E(ULC-wPBE) =  -4151.73387020     A.U. after    6 cycles
 Optimization completed on the basis of negligible forces.
    -- Stationary point found.

                         Standard orientation:
 ---------------------------------------------------------------------
 Center     Atomic      Atomic             Coordinates (Angstroms)
 Number     Number       Type             X           Y           Z
 ---------------------------------------------------------------------
      1          6           0       28.761612    2.422286    1.025200
      2          6           0       28.033212    3.533916    0.594404
      3          6           0       26.659159    3.396175    0.379701
      4          6           0       26.059971    2.145136    0.613964
      5          7           0       26.754134    1.067915    1.030871
      6          6           0       28.070843    1.219478    1.223644
      7          6           0       24.586874    1.930772    0.445606
      8          7           0       23.993593    1.068163    1.292312
      9          6           0       22.686334    0.827190    1.165667
     10          6           0       21.855929    1.407368    0.183822
     11          6           0       22.467690    2.310022   -0.699150
     12          6           0       23.826587    2.564563   -0.552797
     13          9           0       24.411165    3.427938   -1.421577
     14          6           0       20.412170    1.084446    0.094866
     15          6           0       19.443638    2.060006   -0.203826
     16          6           0       18.101158    1.698430   -0.272138
     17          6           0       17.745139    0.357230   -0.032146
     18          7           0       18.657525   -0.593486    0.246913
     19          6           0       19.942916   -0.227531    0.301662
     20          6           0       16.305137   -0.037597   -0.090710
     21          7           0       15.438609    0.937863   -0.435356
     22          6           0       14.132576    0.680142   -0.509854
     23          6           0       13.560553   -0.580109   -0.241772
     24          6           0       14.450159   -1.602750    0.114121
     25          6           0       15.815374   -1.331904    0.186998
     26          9           0       16.623657   -2.343486    0.542893
     27          6           0       12.099316   -0.808278   -0.337697
     28          6           0       11.560745   -1.991497   -0.868701
     29          6           0       10.176350   -2.146466   -0.939094
     30          6           0        9.350412   -1.108201   -0.471563
     31          7           0        9.848210    0.030580    0.049276
     32          6           0       11.176390    0.160561    0.107574
     33          6           0        7.857179   -1.209122   -0.489088
     34          7           0        7.192067   -0.594203    0.507732
     35          6           0        5.858193   -0.638003    0.522021
     36          6           0        5.065676   -1.280367   -0.452767
     37          6           0        5.752923   -1.923964   -1.492941
     38          6           0        7.142947   -1.884706   -1.493843
     39          9           0        7.797454   -2.496767   -2.512858
     40          6           0        3.585899   -1.281349   -0.373104
     41          6           0        2.859652   -0.152687    0.049340
     42          6           0        1.470029   -0.213567    0.108016
     43          6           0        0.823513   -1.407983   -0.264088
     44          7           0        1.501261   -2.500974   -0.665583
     45          6           0        2.835454   -2.424480   -0.709480
     46          6           0       -0.668440   -1.476080   -0.217920
     47          7           0       -1.299659   -0.343736    0.158034
     48          6           0       -2.630524   -0.308033    0.222240
     49          6           0       -3.466443   -1.400125   -0.087990
     50          6           0       -2.823101   -2.584255   -0.472760
     51          6           0       -1.430856   -2.620888   -0.533486
     52          9           0       -0.863545   -3.778309   -0.910317
     53          6           0       -4.942053   -1.299099    0.000858
     54          6           0       -5.637357   -0.141830   -0.395379
     55          6           0       -7.024579   -0.102848   -0.284689
     56          6           0       -7.699929   -1.231354    0.218650
     57          7           0       -7.051894   -2.346054    0.609321
     58          6           0       -5.719303   -2.361775    0.500787
     59          6           0       -9.189956   -1.202449    0.327366
     60          7           0       -9.788692   -0.060157   -0.069996
     61          6           0      -11.115609    0.056835   -0.014670
     62          6           0      -11.978870   -0.961019    0.439837
     63          6           0      -11.369075   -2.150166    0.861394
     64          6           0       -9.981327   -2.267890    0.807378
     65          9           0       -9.447462   -3.429926    1.217786
     66          6           0      -13.448880   -0.776887    0.474668
     67          6           0      -14.239085   -1.267895    1.526636
     68          6           0      -15.618554   -1.063242    1.504546
     69          6           0      -16.184347   -0.353695    0.429603
     70          7           0      -15.443782    0.118984   -0.592189
     71          6           0      -14.126281   -0.098440   -0.559556
     72          6           0      -17.647114   -0.043301    0.363079
     73          7           0      -17.998230    1.116976   -0.223097
     74          6           0      -19.291592    1.435783   -0.311467
     75          6           0      -20.348949    0.635663    0.171405
     76          6           0      -19.989786   -0.580338    0.771753
     77          6           0      -18.640749   -0.905024    0.859214
     78          9           0      -18.304408   -2.085687    1.438223
     79          6           0      -21.764423    1.056065    0.043447
     80          6           0      -22.789852    0.146405   -0.273047
     81          6           0      -24.101181    0.599923   -0.382779
     82          6           0      -24.367592    1.967776   -0.179456
     83          7           0      -23.401663    2.852550    0.133378
     84          6           0      -22.148737    2.396547    0.240560
     85          6           0      -25.772910    2.464252   -0.306135
     86          7           0      -26.713310    1.516727   -0.506034
     87          6           0      -27.996780    1.868138   -0.627336
     88          6           0      -28.441749    3.194146   -0.558772
     89          6           0      -27.488952    4.192080   -0.359059
     90          6           0      -26.148480    3.823206   -0.234059
     91          9           0      -25.250738    4.805862   -0.054107
     92          1           0       29.843070    2.480339    1.205355
     93          1           0       28.526226    4.501470    0.428457
     94          1           0       26.057241    4.247680    0.042601
     95          1           0       28.610886    0.318806    1.558237
     96          1           0       22.253842    0.138338    1.908410
     97          1           0       21.917443    2.796507   -1.514872
     98          1           0       19.741802    3.106067   -0.361676
     99          1           0       17.311154    2.423443   -0.497464
    100          1           0       20.660841   -1.038439    0.505262
    101          1           0       13.493241    1.520317   -0.822268
    102          1           0       14.105503   -2.614999    0.362633
    103          1           0       12.223196   -2.784162   -1.243267
    104          1           0        9.741256   -3.061876   -1.354919
    105          1           0       11.543964    1.096780    0.558688
    106          1           0        5.374143   -0.144353    1.379671
    107          1           0        5.231628   -2.428843   -2.316195
    108          1           0        3.383202    0.777542    0.309710
    109          1           0        0.861186    0.641228    0.422802
    110          1           0        3.354435   -3.347085   -1.017813
    111          1           0       -3.070254    0.643236    0.560559
    112          1           0       -3.381624   -3.486965   -0.752008
    113          1           0       -5.092677    0.717217   -0.810915
    114          1           0       -7.610146    0.772651   -0.586506
    115          1           0       -5.224160   -3.280994    0.854701
    116          1           0      -11.527113    1.027524   -0.331855
    117          1           0      -11.951970   -3.010162    1.216150
    118          1           0      -13.773390   -1.788734    2.374779
    119          1           0      -16.247317   -1.433808    2.321596
    120          1           0      -13.560482    0.273645   -1.429367
    121          1           0      -19.515202    2.387426   -0.818797
    122          1           0      -20.734235   -1.272362    1.186048
    123          1           0      -22.555196   -0.911981   -0.454329
    124          1           0      -24.932987   -0.069176   -0.629571
    125          1           0      -21.391997    3.145765    0.524609
    126          1           0      -28.709563    1.044588   -0.787935
    127          1           0      -29.506787    3.438578   -0.661722
    128          1           0      -27.751178    5.256055   -0.298512
 ---------------------------------------------------------------------

 Alpha  occ. eigenvalues --   -0.41256  -0.40696  -0.39719  -0.39277  -0.38847
 Alpha  occ. eigenvalues --   -0.38219  -0.37565  -0.37013  -0.36253  -0.35547
 Alpha  occ. eigenvalues --   -0.35389  -0.35374  -0.35302  -0.35231  -0.35203
 Alpha  occ. eigenvalues --   -0.34810  -0.34389  -0.34341  -0.34258  -0.34109
 Alpha  occ. eigenvalues --   -0.34062  -0.34032  -0.33773  -0.33038  -0.32553
 Alpha  occ. eigenvalues --   -0.32474  -0.32417  -0.32116  -0.31953  -0.31789
 Alpha  occ. eigenvalues --   -0.31530  -0.31058  -0.30975  -0.30896  -0.30800
 Alpha  occ. eigenvalues --   -0.30491  -0.30474  -0.30301  -0.30168  -0.29980
 Alpha  occ. eigenvalues --   -0.29781  -0.29050  -0.28464  -0.28056
 Alpha virt. eigenvalues --   -0.04452  -0.03798  -0.03126  -0.02132  -0.01037
 Alpha virt. eigenvalues --   -0.00122   0.00452   0.00901   0.01088   0.01176
 Alpha virt. eigenvalues --    0.01221   0.01466   0.01620   0.01746   0.01876

  Beta  occ. eigenvalues --  -24.40852 -24.40717 -24.40241 -24.39736 -24.39622
  Beta  occ. eigenvalues --  -24.39506 -24.39501 -14.11783 -14.11722 -14.11577
  Beta  occ. eigenvalues --  -14.11513 -14.11276 -14.11200 -14.10739 -14.10735
  Beta  occ. eigenvalues --  -14.10698 -14.10651 -14.10629 -14.10619 -14.10394
  Beta  occ. eigenvalues --  -14.09684 -10.10332 -10.10270 -10.10225 -10.10164
  Beta  occ. eigenvalues --  -10.10048 -10.10013 -10.09743 -10.05941 -10.05847
  Beta  occ. eigenvalues --  -10.05775 -10.05773 -10.05722 -10.05682 -10.05613
  Beta  occ. eigenvalues --  -10.05489 -10.05486 -10.05401 -10.05376 -10.05172
  Beta  occ. eigenvalues --  -10.05157 -10.04911 -10.04869 -10.04730 -10.04711
  Beta  occ. eigenvalues --  -10.04671 -10.04659 -10.04640 -10.04620 -10.04596
  Beta  occ. eigenvalues --  -10.04587 -10.04574 -10.04550 -10.04265 -10.04264
  Beta  occ. eigenvalues --  -10.04181 -10.04174 -10.04112 -10.04102 -10.04074
  Beta  occ. eigenvalues --  -10.03767 -10.03697 -10.03673 -10.03647 -10.03615
  Beta  occ. eigenvalues --  -10.03576 -10.03567 -10.03556 -10.03507 -10.03497
  Beta  occ. eigenvalues --  -10.03482 -10.03475 -10.03435 -10.03415 -10.03369
  Beta  occ. eigenvalues --  -10.03265 -10.03255 -10.03225 -10.03210 -10.03139
  Beta  occ. eigenvalues --  -10.03037 -10.02957 -10.02578 -10.02451 -10.02438
  Beta  occ. eigenvalues --  -10.01924 -10.01853 -10.01831 -10.01649 -10.01592
  Beta  occ. eigenvalues --  -10.01536  -1.24297  -1.24173  -1.23691  -1.23618
  Beta  occ. eigenvalues --   -1.23508  -1.23388  -1.23383  -0.99245  -0.99140
  Beta  occ. eigenvalues --   -0.99080  -0.99017  -0.98884  -0.98867  -0.98367
  Beta  occ. eigenvalues --   -0.97461  -0.97284  -0.97203  -0.97089  -0.96964
  Beta  occ. eigenvalues --   -0.96878  -0.96088  -0.88206  -0.88055  -0.87836
  Beta  occ. eigenvalues --   -0.87605  -0.87486  -0.87317  -0.85142  -0.84194
  Beta  occ. eigenvalues --   -0.84120  -0.83957  -0.83782  -0.83715  -0.83651
  Beta  occ. eigenvalues --   -0.83433  -0.83391  -0.83226  -0.83115  -0.83008
  Beta  occ. eigenvalues --   -0.82839  -0.82604  -0.82225  -0.80824  -0.80315
  Beta  occ. eigenvalues --   -0.79543  -0.78779  -0.77966  -0.77156  -0.76615
  Beta  occ. eigenvalues --   -0.73503  -0.72839  -0.71861  -0.71122  -0.70752
  Beta  occ. eigenvalues --   -0.70570  -0.70360  -0.70172  -0.69898  -0.69646
  Beta  occ. eigenvalues --   -0.69217  -0.69100  -0.68780  -0.68339  -0.68033
  Beta  occ. eigenvalues --   -0.67737  -0.67042  -0.66850  -0.66630  -0.66469
  Beta  occ. eigenvalues --   -0.66150  -0.66068  -0.65824  -0.65590  -0.65178
  Beta  occ. eigenvalues --   -0.64913  -0.64683  -0.64424  -0.60447  -0.60327
  Beta  occ. eigenvalues --   -0.60206  -0.60054  -0.59812  -0.59732  -0.59550
  Beta  occ. eigenvalues --   -0.58676  -0.58416  -0.58186  -0.58111  -0.57936
  Beta  occ. eigenvalues --   -0.57819  -0.57720  -0.57537  -0.57347  -0.57276
  Beta  occ. eigenvalues --   -0.57170  -0.56840  -0.56489  -0.56302  -0.55116
  Beta  occ. eigenvalues --   -0.54846  -0.54573  -0.54286  -0.53940  -0.53657
  Beta  occ. eigenvalues --   -0.53571  -0.53354  -0.53140  -0.52985  -0.52862
  Beta  occ. eigenvalues --   -0.52718  -0.52644  -0.52386  -0.52346  -0.52114
  Beta  occ. eigenvalues --   -0.52064  -0.51991  -0.51935  -0.51884  -0.51787
  Beta  occ. eigenvalues --   -0.51370  -0.50949  -0.50802  -0.50713  -0.50576
  Beta  occ. eigenvalues --   -0.50469  -0.50188  -0.48843  -0.48420  -0.48061
  Beta  occ. eigenvalues --   -0.47988  -0.47901  -0.47809  -0.47758  -0.47628
  Beta  occ. eigenvalues --   -0.47612  -0.47513  -0.47433  -0.47338  -0.47275
  Beta  occ. eigenvalues --   -0.46988  -0.46910  -0.46828  -0.46527  -0.46351
  Beta  occ. eigenvalues --   -0.46164  -0.46010  -0.45891  -0.45800  -0.45685
  Beta  occ. eigenvalues --   -0.45557  -0.45512  -0.45434  -0.45332  -0.45320
  Beta  occ. eigenvalues --   -0.45285  -0.45199  -0.45159  -0.45122  -0.44963
  Beta  occ. eigenvalues --   -0.44837  -0.44609  -0.44498  -0.44418  -0.44367
  Beta  occ. eigenvalues --   -0.44275  -0.43987  -0.43884  -0.43491  -0.43437
  Beta  occ. eigenvalues --   -0.42245  -0.41982  -0.41696  -0.41529  -0.41513
  Beta  occ. eigenvalues --   -0.41256  -0.40696  -0.39719  -0.39277  -0.38847
  Beta  occ. eigenvalues --   -0.38219  -0.37565  -0.37013  -0.36253  -0.35547
  Beta  occ. eigenvalues --   -0.35389  -0.35374  -0.35302  -0.35231  -0.35203
  Beta  occ. eigenvalues --   -0.34810  -0.34389  -0.34341  -0.34258  -0.34109
  Beta  occ. eigenvalues --   -0.34062  -0.34032  -0.33773  -0.33038  -0.32553
  Beta  occ. eigenvalues --   -0.32474  -0.32417  -0.32116  -0.31953  -0.31789
  Beta  occ. eigenvalues --   -0.31530  -0.31058  -0.30975  -0.30896  -0.30800
  Beta  occ. eigenvalues --   -0.30491  -0.30474  -0.30301  -0.30168  -0.29980
  Beta  occ. eigenvalues --   -0.29781  -0.29050  -0.28464  -0.28056
  Beta virt. eigenvalues --   -0.04452  -0.03798  -0.03126  -0.02132  -0.01037
  Beta virt. eigenvalues --   -0.00122   0.00452   0.00901   0.01088   0.01176
  Beta virt. eigenvalues --    0.01221   0.01466   0.01620   0.01746   0.01876

 Mulliken charges and spin densities:
               1          2
     1  C   -0.024480  -0.000000
     2  C    0.067914  -0.000000
     3  C    0.012637   0.000000
     4  C    0.064754  -0.000000
     5  N   -0.167937   0.000000
     6  C    0.087198   0.000000
     7  C    0.034858  -0.000000
     8  N   -0.158593  -0.000000
     9  C    0.082287   0.000000
    10  C   -0.040334  -0.000000
    11  C    0.068519   0.000000
    12  C    0.111153   0.000000
    13  F   -0.126145  -0.000000
    14  C   -0.042018   0.000000
    15  C    0.065960  -0.000000
    16  C    0.059640  -0.000000
    17  C    0.048360   0.000000
    18  N   -0.189386   0.000000
    19  C    0.085166  -0.000000
    20  C    0.042692  -0.000000
    21  N   -0.198172   0.000000
    22  C    0.090257  -0.000000
    23  C   -0.039829   0.000000
    24  C    0.063945  -0.000000
    25  C    0.128966   0.000000
    26  F   -0.094724  -0.000000
    27  C   -0.046284  -0.000000
    28  C    0.064264   0.000000
    29  C    0.026864   0.000000
    30  C    0.072331   0.000000
    31  N   -0.164548  -0.000000
    32  C    0.088465   0.000000
    33  C    0.031771  -0.000000
    34  N   -0.158888   0.000000
    35  C    0.082930   0.000000
    36  C   -0.038398  -0.000000
    37  C    0.069662  -0.000000
    38  C    0.110456   0.000000
    39  F   -0.125119  -0.000000
    40  C   -0.041940  -0.000000
    41  C    0.066444  -0.000000
    42  C    0.060330  -0.000000
    43  C    0.048022  -0.000000
    44  N   -0.189054  -0.000000
    45  C    0.084182  -0.000000
    46  C    0.042405  -0.000000
    47  N   -0.198074   0.000000
    48  C    0.089812  -0.000000
    49  C   -0.038645   0.000000
    50  C    0.064137  -0.000000
    51  C    0.128631   0.000000
    52  F   -0.095046  -0.000000
    53  C   -0.042275   0.000000
    54  C    0.066033  -0.000000
    55  C    0.060490   0.000000
    56  C    0.048192   0.000000
    57  N   -0.189136   0.000000
    58  C    0.084738  -0.000000
    59  C    0.042788  -0.000000
    60  N   -0.198183  -0.000000
    61  C    0.090828   0.000000
    62  C   -0.040223   0.000000
    63  C    0.063624  -0.000000
    64  C    0.128789   0.000000
    65  F   -0.095257   0.000000
    66  C   -0.044866  -0.000000
    67  C    0.063260   0.000000
    68  C    0.025862  -0.000000
    69  C    0.072858   0.000000
    70  N   -0.163709  -0.000000
    71  C    0.088793   0.000000
    72  C    0.031527   0.000000
    73  N   -0.159008  -0.000000
    74  C    0.083512   0.000000
    75  C   -0.040749  -0.000000
    76  C    0.071020   0.000000
    77  C    0.111377  -0.000000
    78  F   -0.125909  -0.000000
    79  C   -0.043324   0.000000
    80  C    0.067174  -0.000000
    81  C    0.059002   0.000000
    82  C    0.050078   0.000000
    83  N   -0.188022  -0.000000
    84  C    0.084982   0.000000
    85  C    0.040829  -0.000000
    86  N   -0.199161  -0.000000
    87  C    0.087396  -0.000000
    88  C   -0.015351   0.000000
    89  C    0.063760  -0.000000
    90  C    0.120343   0.000000
    91  F   -0.096390  -0.000000
    92  H   -0.009357   0.000000
    93  H   -0.006426   0.000000
    94  H   -0.011984  -0.000000
    95  H    0.003193   0.000000
    96  H    0.004526   0.000000
    97  H   -0.004088  -0.000000
    98  H   -0.015842  -0.000000
    99  H   -0.008824  -0.000000
   100  H    0.002622  -0.000000
   101  H    0.002735   0.000000
   102  H   -0.003780   0.000000
   103  H   -0.013188  -0.000000
   104  H   -0.009350  -0.000000
   105  H    0.002969   0.000000
   106  H    0.003272  -0.000000
   107  H   -0.000055  -0.000000
   108  H   -0.010593   0.000000
   109  H   -0.007929   0.000000
   110  H   -0.002504  -0.000000
   111  H    0.000413  -0.000000
   112  H   -0.000879   0.000000
   113  H   -0.012482  -0.000000
   114  H   -0.007314  -0.000000
   115  H   -0.000737  -0.000000
   116  H    0.004368   0.000000
   117  H   -0.003661  -0.000000
   118  H   -0.013515   0.000000
   119  H   -0.009654   0.000000
   120  H    0.003180   0.000000
   121  H    0.006173  -0.000000
   122  H   -0.002908   0.000000
   123  H   -0.015002  -0.000000
   124  H   -0.008883  -0.000000
   125  H    0.001342  -0.000000
   126  H    0.005587   0.000000
   127  H   -0.002489  -0.000000
   128  H    0.007980  -0.000000
 Sum of Mulliken charges =  -0.00000  -0.00000

 Dipole moment (field-independent basis, Debye):
    X=             -7.2346    Y=              1.2830    Z=             -0.8793  Tot=              7.3999
 Quadrupole moment (field-independent basis, Debye-Ang):
   XX=           -319.4813   YY=           -487.7288   ZZ=           -510.5631
   XY=             59.0709   XZ=            -39.5945   YZ=             -1.4256

 Normal termination of Gaussian 16 at Fri Jul 24 00:08:00 2020.
