 Gaussian 16, Revision A.03,
 Gaussian 16:  EM64L-G16RevA.03 25-Dec-2016

 ---------------------------------------------------------------
 #P uLC-wPBE/cc-pVDZ iop(3/107=0366800000, 3/108=0366800000) opt
 ---------------------------------------------------------------

 ----------------
 H14 C27 S3 N3 F3
 ----------------
 Symbolic Z-matrix:
 Charge =  0 Multiplicity = 1

 SCF Done:  E(ULC-wPBE) =  -2694.18574864     A.U. after   16 cycles
 SCF Done:  E(ULC-wPBE) =  -2694.24242744     A.U. after   14 cycles
 SCF Done:  E(ULC-wPBE) =  -2694.27676541     A.U. after   15 cycles
 SCF Done:  E(ULC-wPBE) =  -2694.27915909     A.U. after   14 cycles
 SCF Done:  E(ULC-wPBE) =  -2694.28013958     A.U. after   14 cycles
 SCF Done:  E(ULC-wPBE) =  -2694.28057437     A.U. after   14 cycles
 SCF Done:  E(ULC-wPBE) =  -2694.28076873     A.U. after   12 cycles
 SCF Done:  E(ULC-wPBE) =  -2694.28081323     A.U. after   12 cycles
 SCF Done:  E(ULC-wPBE) =  -2694.28082634     A.U. after   11 cycles
 SCF Done:  E(ULC-wPBE) =  -2694.28083639     A.U. after   11 cycles
 SCF Done:  E(ULC-wPBE) =  -2694.28084233     A.U. after   11 cycles
 SCF Done:  E(ULC-wPBE) =  -2694.28084445     A.U. after   10 cycles
 SCF Done:  E(ULC-wPBE) =  -2694.28084659     A.U. after   11 cycles
 SCF Done:  E(ULC-wPBE) =  -2694.28084868     A.U. after   11 cycles
 SCF Done:  E(ULC-wPBE) =  -2694.28084898     A.U. after    9 cycles
 SCF Done:  E(ULC-wPBE) =  -2694.28084900     A.U. after    8 cycles
 SCF Done:  E(ULC-wPBE) =  -2694.28084904     A.U. after    7 cycles
 SCF Done:  E(ULC-wPBE) =  -2694.28084896     A.U. after    7 cycles
 Optimization completed.
    -- Stationary point found.

                         Standard orientation:
 ---------------------------------------------------------------------
 Center     Atomic      Atomic             Coordinates (Angstroms)
 Number     Number       Type             X           Y           Z
 ---------------------------------------------------------------------
      1          6           0      -10.684368    2.666693   -0.569376
      2          6           0      -10.933150    1.342287   -0.230678
      3          6           0       -9.864700    0.481529   -0.028561
      4          6           0       -8.568685    0.985362   -0.174519
      5          7           0       -8.322742    2.259943   -0.500225
      6          6           0       -9.359588    3.069657   -0.690545
      7          6           0       -7.372143    0.155452    0.016739
      8          6           0       -7.231374   -1.162797    0.352978
      9          9           0       -8.266568   -1.983074    0.591667
     10          6           0       -5.896778   -1.623284    0.448304
     11          6           0       -5.005878   -0.620399    0.173785
     12         16           0       -5.809982    0.860299   -0.202452
     13          6           0       -3.537940   -0.705042    0.169830
     14          6           0       -2.722588    0.373020    0.518581
     15          6           0       -1.347717    0.220995    0.503843
     16          6           0       -0.803690   -1.014586    0.136980
     17          7           0       -1.573717   -2.053317   -0.205213
     18          6           0       -2.889283   -1.891406   -0.187296
     19          6           0        0.649742   -1.236898    0.107347
     20          6           0        1.340798   -2.419077    0.060957
     21          9           0        0.774738   -3.622134    0.058045
     22          6           0        2.752817   -2.287008    0.048301
     23          6           0        3.144264   -0.977946    0.082322
     24         16           0        1.778481    0.076897    0.117952
     25          6           0        4.512958   -0.442032    0.074322
     26          6           0        4.864621    0.736036    0.735822
     27          6           0        6.173808    1.183239    0.698081
     28          6           0        7.119868    0.429097   -0.002640
     29          7           0        6.794886   -0.699563   -0.645095
     30          6           0        5.535064   -1.108793   -0.608175
     31          6           0        8.533216    0.812614   -0.090744
     32          6           0        9.206804    1.881996    0.434940
     33          9           0        8.623170    2.833546    1.180984
     34          6           0       10.591930    1.926370    0.137647
     35          6           0       10.949817    0.858250   -0.629871
     36         16           0        9.633413   -0.177613   -0.983138
     37          1           0      -11.497005    3.375810   -0.737113
     38          1           0      -11.957705    0.977424   -0.123704
     39          1           0      -10.022747   -0.562891    0.237525
     40          1           0       -9.115093    4.103918   -0.956135
     41          1           0       -5.632592   -2.640316    0.735312
     42          1           0       -3.165628    1.325545    0.820985
     43          1           0       -0.701685    1.052039    0.794395
     44          1           0       -3.479594   -2.761226   -0.496299
     45          1           0        3.428768   -3.141272    0.045702
     46          1           0        4.112548    1.298677    1.295504
     47          1           0        6.467682    2.097936    1.210961
     48          1           0        5.311272   -2.022619   -1.169200
     49          1           0       11.260410    2.713355    0.483812
     50          1           0       11.942797    0.625832   -1.012339
 ---------------------------------------------------------------------

 The electronic state is 1-A.
 Alpha  occ. eigenvalues --  -88.31750 -88.31139 -88.31091 -24.50005 -24.49941
 Alpha  occ. eigenvalues --  -24.48799 -14.21050 -14.20495 -14.20482 -10.19693
 Alpha  occ. eigenvalues --  -10.19672 -10.19667 -10.16752 -10.16656 -10.16312
 Alpha  occ. eigenvalues --  -10.16096 -10.15528 -10.15295 -10.14911 -10.14569
 Alpha  occ. eigenvalues --  -10.14531 -10.14449 -10.14182 -10.14169 -10.14005
 Alpha  occ. eigenvalues --  -10.13781 -10.13722 -10.13587 -10.13142 -10.12544
 Alpha  occ. eigenvalues --  -10.12377 -10.12226 -10.12027 -10.12007 -10.11867
 Alpha  occ. eigenvalues --  -10.11835  -7.92448  -7.91760  -7.91723  -5.94102
 Alpha  occ. eigenvalues --   -5.93587  -5.93418  -5.93373  -5.93125  -5.92895
 Alpha  occ. eigenvalues --   -5.92844  -5.92457  -5.92440  -1.34348  -1.34305
 Alpha  occ. eigenvalues --   -1.33597  -1.09697  -1.09294  -1.09001  -1.04680
 Alpha  occ. eigenvalues --   -1.04075  -1.03645  -0.96730  -0.96079  -0.94509
 Alpha  occ. eigenvalues --   -0.93847  -0.93195  -0.92056  -0.88922  -0.88282
 Alpha  occ. eigenvalues --   -0.87927  -0.87531  -0.86307  -0.84131  -0.79521
 Alpha  occ. eigenvalues --   -0.78188  -0.77551  -0.77080  -0.76762  -0.75434
 Alpha  occ. eigenvalues --   -0.71430  -0.70804  -0.70565  -0.70435  -0.69835
 Alpha  occ. eigenvalues --   -0.69671  -0.67951  -0.67636  -0.66919  -0.63410
 Alpha  occ. eigenvalues --   -0.62516  -0.61719  -0.61213  -0.60983  -0.60382
 Alpha  occ. eigenvalues --   -0.59978  -0.59933  -0.59773  -0.59464  -0.59322
 Alpha  occ. eigenvalues --   -0.58522  -0.57216  -0.56346  -0.55998  -0.55588
 Alpha  occ. eigenvalues --   -0.55492  -0.55157  -0.55023  -0.54612  -0.53888
 Alpha  occ. eigenvalues --   -0.53552  -0.52740  -0.52235  -0.51715  -0.51260
 Alpha  occ. eigenvalues --   -0.50822  -0.50159  -0.49815  -0.49559  -0.48996
 Alpha  occ. eigenvalues --   -0.48045  -0.47537  -0.47101  -0.46240  -0.46177
 Alpha  occ. eigenvalues --   -0.46038  -0.43498  -0.41876  -0.40289  -0.40101
 Alpha  occ. eigenvalues --   -0.39647  -0.38633  -0.37763  -0.37418  -0.37012
 Alpha  occ. eigenvalues --   -0.36028  -0.35641  -0.35553  -0.34132  -0.31702
 Alpha  occ. eigenvalues --   -0.29556
 Alpha virt. eigenvalues --   -0.01280   0.01010   0.03737   0.04496   0.04845
 Alpha virt. eigenvalues --    0.05407   0.07223   0.09679   0.11118   0.11784
 Alpha virt. eigenvalues --    0.12326   0.12492   0.15166   0.15350   0.15547

  Beta  occ. eigenvalues --  -88.31750 -88.31139 -88.31091 -24.50005 -24.49941
  Beta  occ. eigenvalues --  -24.48799 -14.21050 -14.20495 -14.20482 -10.19693
  Beta  occ. eigenvalues --  -10.19672 -10.19667 -10.16752 -10.16656 -10.16312
  Beta  occ. eigenvalues --  -10.16096 -10.15528 -10.15295 -10.14911 -10.14569
  Beta  occ. eigenvalues --  -10.14531 -10.14449 -10.14182 -10.14169 -10.14005
  Beta  occ. eigenvalues --  -10.13781 -10.13722 -10.13587 -10.13142 -10.12544
  Beta  occ. eigenvalues --  -10.12377 -10.12226 -10.12027 -10.12007 -10.11867
  Beta  occ. eigenvalues --  -10.11835  -7.92448  -7.91760  -7.91723  -5.94102
  Beta  occ. eigenvalues --   -5.93587  -5.93418  -5.93373  -5.93125  -5.92895
  Beta  occ. eigenvalues --   -5.92844  -5.92457  -5.92440  -1.34348  -1.34305
  Beta  occ. eigenvalues --   -1.33597  -1.09697  -1.09294  -1.09001  -1.04680
  Beta  occ. eigenvalues --   -1.04075  -1.03645  -0.96730  -0.96079  -0.94509
  Beta  occ. eigenvalues --   -0.93847  -0.93195  -0.92056  -0.88922  -0.88282
  Beta  occ. eigenvalues --   -0.87927  -0.87531  -0.86307  -0.84131  -0.79521
  Beta  occ. eigenvalues --   -0.78188  -0.77551  -0.77080  -0.76762  -0.75434
  Beta  occ. eigenvalues --   -0.71430  -0.70804  -0.70565  -0.70435  -0.69835
  Beta  occ. eigenvalues --   -0.69671  -0.67951  -0.67636  -0.66919  -0.63410
  Beta  occ. eigenvalues --   -0.62516  -0.61719  -0.61213  -0.60983  -0.60382
  Beta  occ. eigenvalues --   -0.59978  -0.59933  -0.59773  -0.59464  -0.59322
  Beta  occ. eigenvalues --   -0.58522  -0.57216  -0.56346  -0.55998  -0.55588
  Beta  occ. eigenvalues --   -0.55492  -0.55157  -0.55023  -0.54612  -0.53888
  Beta  occ. eigenvalues --   -0.53552  -0.52740  -0.52235  -0.51715  -0.51260
  Beta  occ. eigenvalues --   -0.50822  -0.50159  -0.49815  -0.49559  -0.48996
  Beta  occ. eigenvalues --   -0.48045  -0.47537  -0.47101  -0.46240  -0.46177
  Beta  occ. eigenvalues --   -0.46038  -0.43498  -0.41876  -0.40289  -0.40101
  Beta  occ. eigenvalues --   -0.39647  -0.38633  -0.37763  -0.37418  -0.37012
  Beta  occ. eigenvalues --   -0.36028  -0.35641  -0.35553  -0.34132  -0.31702
  Beta  occ. eigenvalues --   -0.29556
  Beta virt. eigenvalues --   -0.01280   0.01010   0.03737   0.04496   0.04845
  Beta virt. eigenvalues --    0.05407   0.07223   0.09679   0.11118   0.11784
  Beta virt. eigenvalues --    0.12326   0.12492   0.15166   0.15350   0.15547

 Mulliken charges and spin densities:
               1          2
     1  C   -0.057222  -0.000000
     2  C    0.066241   0.000000
     3  C   -0.032619   0.000000
     4  C    0.128461  -0.000000
     5  N   -0.218660  -0.000000
     6  C    0.090781  -0.000000
     7  C   -0.169384   0.000000
     8  C    0.101834  -0.000000
     9  F   -0.126352   0.000000
    10  C    0.029876   0.000000
    11  C   -0.164629   0.000000
    12  S    0.220152   0.000000
    13  C   -0.030740  -0.000000
    14  C    0.058498   0.000000
    15  C   -0.009845  -0.000000
    16  C    0.113632   0.000000
    17  N   -0.187554   0.000000
    18  C    0.090163  -0.000000
    19  C   -0.197888  -0.000000
    20  C    0.149975   0.000000
    21  F   -0.098080   0.000000
    22  C    0.021691  -0.000000
    23  C   -0.154066   0.000000
    24  S    0.167478   0.000000
    25  C   -0.033733  -0.000000
    26  C    0.064009  -0.000000
    27  C   -0.012254   0.000000
    28  C    0.143602   0.000000
    29  N   -0.214792  -0.000000
    30  C    0.100212   0.000000
    31  C   -0.180559  -0.000000
    32  C    0.080215   0.000000
    33  F   -0.128184  -0.000000
    34  C    0.049835   0.000000
    35  C   -0.137318  -0.000000
    36  S    0.219626   0.000000
    37  H    0.010313   0.000000
    38  H    0.014394   0.000000
    39  H    0.015777  -0.000000
    40  H    0.019987  -0.000000
    41  H    0.016927   0.000000
    42  H    0.015142  -0.000000
    43  H    0.016442  -0.000000
    44  H    0.017403  -0.000000
    45  H    0.017895  -0.000000
    46  H    0.012199   0.000000
    47  H    0.016752  -0.000000
    48  H    0.019602   0.000000
    49  H    0.019612  -0.000000
    50  H    0.045150   0.000000
 Sum of Mulliken charges =  -0.00000  -0.00000

 Dipole moment (field-independent basis, Debye):
    X=             -0.7121    Y=              2.2488    Z=              0.9815  Tot=              2.5549
 Quadrupole moment (field-independent basis, Debye-Ang):
   XX=           -156.3879   YY=           -216.3081   ZZ=           -226.5964
   XY=             -1.1934   XZ=              0.6071   YZ=              1.1359

 Normal termination of Gaussian 16 at Sat Jul 25 06:33:27 2020.
