 Gaussian 16, Revision A.03,
 Gaussian 16:  EM64L-G16RevA.03 25-Dec-2016

 ---------------------------------------------------------------
 #P uLC-wPBE/cc-pVDZ iop(3/107=0489800000, 3/108=0489800000) opt
 ---------------------------------------------------------------

 -------------
 H14 C13 S1 O3
 -------------
 Symbolic Z-matrix:
 Charge =  0 Multiplicity = 1

 SCF Done:  E(ULC-wPBE) =  -1127.01417903     A.U. after   16 cycles
 SCF Done:  E(ULC-wPBE) =  -1127.06063505     A.U. after   14 cycles
 SCF Done:  E(ULC-wPBE) =  -1127.07966366     A.U. after   14 cycles
 SCF Done:  E(ULC-wPBE) =  -1127.08070622     A.U. after   14 cycles
 SCF Done:  E(ULC-wPBE) =  -1127.08085137     A.U. after   14 cycles
 SCF Done:  E(ULC-wPBE) =  -1127.08117642     A.U. after   12 cycles
 SCF Done:  E(ULC-wPBE) =  -1127.08139962     A.U. after   13 cycles
 SCF Done:  E(ULC-wPBE) =  -1127.08152152     A.U. after   14 cycles
 SCF Done:  E(ULC-wPBE) =  -1127.08157118     A.U. after   12 cycles
 SCF Done:  E(ULC-wPBE) =  -1127.08168724     A.U. after   14 cycles
 SCF Done:  E(ULC-wPBE) =  -1127.08315682     A.U. after    8 cycles
 SCF Done:  E(ULC-wPBE) =  -1127.08302481     A.U. after   13 cycles
 SCF Done:  E(ULC-wPBE) =  -1127.08318817     A.U. after   13 cycles
 SCF Done:  E(ULC-wPBE) =  -1127.08319628     A.U. after   11 cycles
 SCF Done:  E(ULC-wPBE) =  -1127.08319945     A.U. after   11 cycles
 SCF Done:  E(ULC-wPBE) =  -1127.08320069     A.U. after    9 cycles
 SCF Done:  E(ULC-wPBE) =  -1127.08320127     A.U. after    8 cycles
 SCF Done:  E(ULC-wPBE) =  -1127.08320141     A.U. after    9 cycles
 SCF Done:  E(ULC-wPBE) =  -1127.08320138     A.U. after    6 cycles
 SCF Done:  E(ULC-wPBE) =  -1127.08320144     A.U. after    8 cycles
 Optimization completed.
    -- Stationary point found.

                         Standard orientation:
 ---------------------------------------------------------------------
 Center     Atomic      Atomic             Coordinates (Angstroms)
 Number     Number       Type             X           Y           Z
 ---------------------------------------------------------------------
      1          6           0        3.454601   -0.759030    0.099713
      2          6           0        3.118141    0.581103    0.153810
      3          6           0        1.789959    0.961174    0.056375
      4          8           0        1.484689    2.290102    0.084357
      5          6           0        0.998525    2.744337    1.328208
      6          6           0        0.778131    0.014326   -0.100073
      7          6           0        1.144587   -1.330933   -0.167887
      8          8           0        0.194084   -2.296233   -0.343754
      9          6           0       -0.185740   -2.467844   -1.690645
     10          6           0        2.469497   -1.717147   -0.061747
     11          6           0       -0.637227    0.402216   -0.195220
     12          6           0       -1.653770   -0.042776    0.595391
     13          8           0       -1.420302   -0.824521    1.672976
     14          6           0       -2.234171   -1.965441    1.789549
     15          6           0       -2.930427    0.468322    0.211484
     16          6           0       -2.838450    1.295823   -0.855929
     17         16           0       -1.231412    1.481788   -1.396255
     18          1           0        4.496557   -1.060591    0.180029
     19          1           0        3.870628    1.356447    0.269252
     20          1           0        1.758434    2.623819    2.112103
     21          1           0        0.767015    3.805450    1.210113
     22          1           0        0.088964    2.206098    1.623295
     23          1           0       -0.615831   -1.546542   -2.104842
     24          1           0       -0.940961   -3.257635   -1.713392
     25          1           0        0.672012   -2.773204   -2.305241
     26          1           0        2.705600   -2.776745   -0.111162
     27          1           0       -1.885173   -2.509691    2.669946
     28          1           0       -2.129450   -2.608547    0.908421
     29          1           0       -3.290482   -1.702871    1.935229
     30          1           0       -3.860087    0.242770    0.723424
     31          1           0       -3.644337    1.833070   -1.343890
 ---------------------------------------------------------------------

 The electronic state is 1-A.
 Alpha  occ. eigenvalues --  -88.36418 -19.04193 -19.03880 -19.03617 -10.22572
 Alpha  occ. eigenvalues --  -10.22508 -10.22291 -10.21159 -10.21073 -10.20693
 Alpha  occ. eigenvalues --  -10.19850 -10.19259 -10.18151 -10.17590 -10.17197
 Alpha  occ. eigenvalues --  -10.16451 -10.16412  -7.97342  -5.98448  -5.97898
 Alpha  occ. eigenvalues --   -5.97487  -1.24274  -1.23556  -1.23371  -1.08009
 Alpha  occ. eigenvalues --   -1.04582  -0.96122  -0.93326  -0.91938  -0.90126
 Alpha  occ. eigenvalues --   -0.86520  -0.85306  -0.84229  -0.77918  -0.75352
 Alpha  occ. eigenvalues --   -0.72759  -0.70350  -0.68482  -0.66474  -0.65557
 Alpha  occ. eigenvalues --   -0.61956  -0.61817  -0.61631  -0.61157  -0.60234
 Alpha  occ. eigenvalues --   -0.59400  -0.59062  -0.57877  -0.56451  -0.55207
 Alpha  occ. eigenvalues --   -0.53597  -0.52887  -0.51648  -0.50480  -0.49951
 Alpha  occ. eigenvalues --   -0.48306  -0.48093  -0.46716  -0.46301  -0.42377
 Alpha  occ. eigenvalues --   -0.40787  -0.40351  -0.37652  -0.34953  -0.34573
 Alpha  occ. eigenvalues --   -0.32041
 Alpha virt. eigenvalues --    0.05842   0.09262   0.09861   0.15138   0.16525
 Alpha virt. eigenvalues --    0.17019   0.17267   0.18174   0.18817   0.19963
 Alpha virt. eigenvalues --    0.21365   0.22259   0.23070   0.23472   0.23796

  Beta  occ. eigenvalues --  -88.36418 -19.04193 -19.03880 -19.03617 -10.22572
  Beta  occ. eigenvalues --  -10.22508 -10.22291 -10.21159 -10.21073 -10.20693
  Beta  occ. eigenvalues --  -10.19850 -10.19259 -10.18151 -10.17590 -10.17197
  Beta  occ. eigenvalues --  -10.16451 -10.16412  -7.97342  -5.98448  -5.97898
  Beta  occ. eigenvalues --   -5.97487  -1.24274  -1.23556  -1.23371  -1.08009
  Beta  occ. eigenvalues --   -1.04582  -0.96122  -0.93326  -0.91938  -0.90126
  Beta  occ. eigenvalues --   -0.86520  -0.85306  -0.84229  -0.77918  -0.75352
  Beta  occ. eigenvalues --   -0.72759  -0.70350  -0.68482  -0.66474  -0.65557
  Beta  occ. eigenvalues --   -0.61956  -0.61817  -0.61631  -0.61157  -0.60234
  Beta  occ. eigenvalues --   -0.59400  -0.59062  -0.57877  -0.56451  -0.55207
  Beta  occ. eigenvalues --   -0.53597  -0.52887  -0.51648  -0.50480  -0.49951
  Beta  occ. eigenvalues --   -0.48306  -0.48093  -0.46716  -0.46301  -0.42377
  Beta  occ. eigenvalues --   -0.40787  -0.40351  -0.37652  -0.34953  -0.34573
  Beta  occ. eigenvalues --   -0.32041
  Beta virt. eigenvalues --    0.05842   0.09262   0.09861   0.15138   0.16525
  Beta virt. eigenvalues --    0.17019   0.17267   0.18174   0.18817   0.19963
  Beta virt. eigenvalues --    0.21365   0.22259   0.23070   0.23472   0.23796

 Mulliken charges and spin densities:
               1          2
     1  C    0.018762   0.000000
     2  C    0.013252   0.000000
     3  C    0.013178   0.000000
     4  O   -0.279900  -0.000000
     5  C    0.054670  -0.000000
     6  C    0.092994  -0.000000
     7  C    0.018607   0.000000
     8  O   -0.284486  -0.000000
     9  C    0.055233  -0.000000
    10  C    0.014901  -0.000000
    11  C   -0.285849   0.000000
    12  C    0.143137  -0.000000
    13  O   -0.263496  -0.000000
    14  C    0.042398   0.000000
    15  C    0.010072   0.000000
    16  C   -0.144601   0.000000
    17  S    0.183797  -0.000000
    18  H    0.021310   0.000000
    19  H    0.013072  -0.000000
    20  H    0.041187   0.000000
    21  H    0.059722   0.000000
    22  H    0.064948   0.000000
    23  H    0.056411  -0.000000
    24  H    0.055541   0.000000
    25  H    0.043452   0.000000
    26  H    0.012380  -0.000000
    27  H    0.061628   0.000000
    28  H    0.051371  -0.000000
    29  H    0.040655   0.000000
    30  H    0.024173   0.000000
    31  H    0.051481  -0.000000
 Sum of Mulliken charges =  -0.00000  -0.00000

 Dipole moment (field-independent basis, Debye):
    X=             -1.3845    Y=             -1.0377    Z=              0.0973  Tot=              1.7330
 Quadrupole moment (field-independent basis, Debye-Ang):
   XX=            -91.3071   YY=            -99.6403   ZZ=           -104.2029
   XY=             -0.3233   XZ=              1.0717   YZ=              3.9264

 Normal termination of Gaussian 16 at Fri Jul 24 23:54:22 2020.
