 Gaussian 16, Revision A.03,
 Gaussian 16:  EM64L-G16RevA.03 25-Dec-2016

 ---------------------------------------------------------------
 #P uLC-wPBE/cc-pVDZ iop(3/107=0141600000, 3/108=0141600000) opt
 ---------------------------------------------------------------

 -------------
 H10 C10 S2 O2
 -------------
 Symbolic Z-matrix:
 Charge =  0 Multiplicity = 1

 SCF Done:  E(ULC-wPBE) =  -1333.06474097     A.U. after   15 cycles
 SCF Done:  E(ULC-wPBE) =  -1333.09415793     A.U. after   14 cycles
 SCF Done:  E(ULC-wPBE) =  -1333.10065944     A.U. after   14 cycles
 SCF Done:  E(ULC-wPBE) =  -1333.10192847     A.U. after   14 cycles
 SCF Done:  E(ULC-wPBE) =  -1333.10477235     A.U. after   16 cycles
 SCF Done:  E(ULC-wPBE) =  -1333.10537173     A.U. after   13 cycles
 SCF Done:  E(ULC-wPBE) =  -1333.10546797     A.U. after   13 cycles
 SCF Done:  E(ULC-wPBE) =  -1333.10569966     A.U. after   13 cycles
 SCF Done:  E(ULC-wPBE) =  -1333.10574081     A.U. after   13 cycles
 SCF Done:  E(ULC-wPBE) =  -1333.10574456     A.U. after   10 cycles
 SCF Done:  E(ULC-wPBE) =  -1333.10574599     A.U. after    9 cycles
 SCF Done:  E(ULC-wPBE) =  -1333.10574608     A.U. after    7 cycles
 Optimization completed.
    -- Stationary point found.

                         Standard orientation:
 ---------------------------------------------------------------------
 Center     Atomic      Atomic             Coordinates (Angstroms)
 Number     Number       Type             X           Y           Z
 ---------------------------------------------------------------------
      1          6           0       -2.258926   -2.293288    0.000056
      2          6           0       -2.876359   -1.061378    0.000395
      3          6           0       -1.928812    0.008269    0.000744
      4          8           0       -2.201189    1.349444    0.001532
      5          6           0       -3.573509    1.723947   -0.002523
      6          6           0       -0.596108   -0.412265    0.000533
      7         16           0       -0.533988   -2.168026    0.000303
      8          6           0        0.596114    0.412317    0.000484
      9          6           0        1.928824   -0.008259    0.000115
     10          8           0        2.201159   -1.349446    0.000030
     11          6           0        3.573421   -1.724022   -0.001378
     12          6           0        2.876355    1.061365   -0.000109
     13          6           0        2.258953    2.293293    0.000060
     14         16           0        0.534021    2.168048    0.000532
     15          1           0       -2.731626   -3.280357   -0.000224
     16          1           0       -3.963789   -0.931393    0.000384
     17          1           0       -3.589239    2.828187   -0.003072
     18          1           0       -4.102215    1.351530    0.901877
     19          1           0       -4.097109    1.350528   -0.909458
     20          1           0        4.098787   -1.350907   -0.907437
     21          1           0        4.100520   -1.351361    0.903859
     22          1           0        3.589128   -2.828266   -0.001639
     23          1           0        3.963809    0.931489   -0.000362
     24          1           0        2.731719    3.280336   -0.000042
 ---------------------------------------------------------------------

 The electronic state is 1-A.
 Alpha  occ. eigenvalues --  -88.16987 -88.16987 -18.87946 -18.87946 -10.03356
 Alpha  occ. eigenvalues --  -10.03356 -10.02825 -10.02823 -10.00232 -10.00217
 Alpha  occ. eigenvalues --   -9.99638  -9.99638  -9.97896  -9.97896  -7.77205
 Alpha  occ. eigenvalues --   -7.77204  -5.79292  -5.79292  -5.78825  -5.78825
 Alpha  occ. eigenvalues --   -5.78412  -5.78412  -1.05828  -1.05761  -0.88412
 Alpha  occ. eigenvalues --   -0.86720  -0.77228  -0.75922  -0.74537  -0.72221
 Alpha  occ. eigenvalues --   -0.70034  -0.67876  -0.60793  -0.59567  -0.56859
 Alpha  occ. eigenvalues --   -0.56788  -0.55204  -0.50220  -0.49269  -0.49070
 Alpha  occ. eigenvalues --   -0.49006  -0.47479  -0.46277  -0.45809  -0.43435
 Alpha  occ. eigenvalues --   -0.43021  -0.42526  -0.40491  -0.39923  -0.38759
 Alpha  occ. eigenvalues --   -0.37656  -0.35650  -0.35094  -0.35086  -0.34856
 Alpha  occ. eigenvalues --   -0.30840  -0.27101  -0.26720  -0.21666
 Alpha virt. eigenvalues --    0.00869   0.05953   0.07841   0.08304   0.11019
 Alpha virt. eigenvalues --    0.11027   0.11109   0.12223   0.12804   0.14402
 Alpha virt. eigenvalues --    0.14651   0.15978   0.16729   0.17058   0.17710

  Beta  occ. eigenvalues --  -88.16987 -88.16987 -18.87946 -18.87946 -10.03356
  Beta  occ. eigenvalues --  -10.03356 -10.02825 -10.02823 -10.00232 -10.00217
  Beta  occ. eigenvalues --   -9.99638  -9.99638  -9.97896  -9.97896  -7.77205
  Beta  occ. eigenvalues --   -7.77204  -5.79292  -5.79292  -5.78825  -5.78825
  Beta  occ. eigenvalues --   -5.78412  -5.78412  -1.05828  -1.05761  -0.88412
  Beta  occ. eigenvalues --   -0.86720  -0.77228  -0.75922  -0.74537  -0.72221
  Beta  occ. eigenvalues --   -0.70034  -0.67876  -0.60793  -0.59567  -0.56859
  Beta  occ. eigenvalues --   -0.56788  -0.55204  -0.50220  -0.49269  -0.49070
  Beta  occ. eigenvalues --   -0.49006  -0.47479  -0.46277  -0.45809  -0.43435
  Beta  occ. eigenvalues --   -0.43021  -0.42526  -0.40491  -0.39923  -0.38759
  Beta  occ. eigenvalues --   -0.37656  -0.35650  -0.35094  -0.35086  -0.34856
  Beta  occ. eigenvalues --   -0.30840  -0.27101  -0.26720  -0.21666
  Beta virt. eigenvalues --    0.00869   0.05953   0.07841   0.08304   0.11019
  Beta virt. eigenvalues --    0.11027   0.11109   0.12223   0.12804   0.14402
  Beta virt. eigenvalues --    0.14651   0.15978   0.16729   0.17058   0.17710

 Mulliken charges and spin densities:
               1          2
     1  C   -0.130651   0.000000
     2  C    0.035476  -0.000000
     3  C    0.126036   0.000000
     4  O   -0.248762  -0.000000
     5  C    0.064620   0.000000
     6  C   -0.134438  -0.000000
     7  S    0.157679  -0.000000
     8  C   -0.134435  -0.000000
     9  C    0.126051   0.000000
    10  O   -0.248745   0.000000
    11  C    0.064620  -0.000000
    12  C    0.035461   0.000000
    13  C   -0.130656  -0.000000
    14  S    0.157689   0.000000
    15  H    0.014173   0.000000
    16  H   -0.017799  -0.000000
    17  H    0.049440  -0.000000
    18  H    0.042115   0.000000
    19  H    0.042110   0.000000
    20  H    0.042099   0.000000
    21  H    0.042102  -0.000000
    22  H    0.049436   0.000000
    23  H   -0.017793  -0.000000
    24  H    0.014173   0.000000
 Sum of Mulliken charges =  -0.00000  -0.00000

 Dipole moment (field-independent basis, Debye):
    X=             -0.0002    Y=              0.0001    Z=             -0.0060  Tot=              0.0060
 Quadrupole moment (field-independent basis, Debye-Ang):
   XX=            -70.8850   YY=            -87.6215   ZZ=           -100.0620
   XY=             -3.7846   XZ=              0.0067   YZ=             -0.0045

 Normal termination of Gaussian 16 at Fri Jul 24 12:30:22 2020.
