 Gaussian 16, Revision A.03,
 Gaussian 16:  EM64L-G16RevA.03 25-Dec-2016

 ---------------------------------------------------------------
 #P uLC-wPBE/cc-pVDZ iop(3/107=0355600000, 3/108=0355600000) opt
 ---------------------------------------------------------------

 ---------
 H8 C12 F2
 ---------
 Symbolic Z-matrix:
 Charge =  0 Multiplicity = 1

 SCF Done:  E(ULC-wPBE) =  -661.304592006     A.U. after   16 cycles
 SCF Done:  E(ULC-wPBE) =  -661.335021334     A.U. after   13 cycles
 SCF Done:  E(ULC-wPBE) =  -661.338967682     A.U. after   14 cycles
 SCF Done:  E(ULC-wPBE) =  -661.339173652     A.U. after   13 cycles
 SCF Done:  E(ULC-wPBE) =  -661.339201319     A.U. after   12 cycles
 SCF Done:  E(ULC-wPBE) =  -661.339208632     A.U. after   10 cycles
 SCF Done:  E(ULC-wPBE) =  -661.339208658     A.U. after   10 cycles
 SCF Done:  E(ULC-wPBE) =  -661.339210003     A.U. after    8 cycles
 Optimization completed.
    -- Stationary point found.

                         Standard orientation:
 ---------------------------------------------------------------------
 Center     Atomic      Atomic             Coordinates (Angstroms)
 Number     Number       Type             X           Y           Z
 ---------------------------------------------------------------------
      1          6           0        3.549960   -0.347467    0.109417
      2          6           0        2.877007    0.724180   -0.466403
      3          6           0        1.492409    0.710764   -0.496350
      4          9           0        0.853210    1.740077   -1.076940
      5          6           0        0.741513   -0.336758    0.033589
      6          6           0        1.443055   -1.402888    0.601228
      7          6           0        2.833102   -1.414303    0.642243
      8          6           0       -0.741528   -0.336703   -0.033603
      9          6           0       -1.443052   -1.402798   -0.601276
     10          6           0       -2.833046   -1.414374   -0.642170
     11          6           0       -3.549955   -0.347484   -0.109415
     12          6           0       -2.877000    0.724131    0.466423
     13          6           0       -1.492417    0.710774    0.496424
     14          9           0       -0.853251    1.740139    1.076893
     15          1           0        4.642360   -0.346396    0.139459
     16          1           0        3.405592    1.574545   -0.901560
     17          1           0        0.875057   -2.232785    1.030194
     18          1           0        3.357391   -2.257526    1.097588
     19          1           0       -0.874853   -2.232542   -1.030442
     20          1           0       -3.357384   -2.257593   -1.097502
     21          1           0       -4.642346   -0.346534   -0.139494
     22          1           0       -3.405737    1.574447    0.901541
 ---------------------------------------------------------------------

 The electronic state is 1-A.
 Alpha  occ. eigenvalues --  -24.47568 -24.47567 -10.18227 -10.18226 -10.11925
 Alpha  occ. eigenvalues --  -10.11912 -10.11183 -10.11182 -10.11162 -10.11162
 Alpha  occ. eigenvalues --  -10.10671 -10.10671 -10.10445 -10.10445  -1.32428
 Alpha  occ. eigenvalues --   -1.31862  -1.01095  -0.99071  -0.91987  -0.87972
 Alpha  occ. eigenvalues --   -0.87792  -0.85889  -0.76628  -0.74657  -0.73274
 Alpha  occ. eigenvalues --   -0.71692  -0.67102  -0.64900  -0.61954  -0.61650
 Alpha  occ. eigenvalues --   -0.60275  -0.58895  -0.57837  -0.56909  -0.56043
 Alpha  occ. eigenvalues --   -0.54848  -0.54232  -0.50963  -0.50843  -0.48867
 Alpha  occ. eigenvalues --   -0.48523  -0.47949  -0.47709  -0.45504  -0.44246
 Alpha  occ. eigenvalues --   -0.38229  -0.35664  -0.34845  -0.33212
 Alpha virt. eigenvalues --    0.04218   0.06786   0.07764   0.09040   0.14844
 Alpha virt. eigenvalues --    0.15229   0.18378   0.19646   0.21351   0.21811
 Alpha virt. eigenvalues --    0.22815   0.23326   0.24379   0.25197   0.26693

  Beta  occ. eigenvalues --  -24.47568 -24.47567 -10.18227 -10.18226 -10.11925
  Beta  occ. eigenvalues --  -10.11912 -10.11183 -10.11182 -10.11162 -10.11162
  Beta  occ. eigenvalues --  -10.10671 -10.10671 -10.10445 -10.10445  -1.32428
  Beta  occ. eigenvalues --   -1.31862  -1.01095  -0.99071  -0.91987  -0.87972
  Beta  occ. eigenvalues --   -0.87792  -0.85889  -0.76628  -0.74657  -0.73274
  Beta  occ. eigenvalues --   -0.71692  -0.67102  -0.64900  -0.61954  -0.61650
  Beta  occ. eigenvalues --   -0.60275  -0.58895  -0.57837  -0.56909  -0.56043
  Beta  occ. eigenvalues --   -0.54848  -0.54232  -0.50963  -0.50843  -0.48867
  Beta  occ. eigenvalues --   -0.48523  -0.47949  -0.47709  -0.45504  -0.44246
  Beta  occ. eigenvalues --   -0.38229  -0.35664  -0.34845  -0.33212
  Beta virt. eigenvalues --    0.04218   0.06786   0.07764   0.09040   0.14844
  Beta virt. eigenvalues --    0.15229   0.18378   0.19646   0.21351   0.21811
  Beta virt. eigenvalues --    0.22815   0.23326   0.24379   0.25197   0.26693

 Mulliken charges and spin densities:
               1          2
     1  C    0.015894   0.000000
     2  C   -0.002878  -0.000000
     3  C    0.117137   0.000000
     4  F   -0.122584   0.000000
     5  C   -0.062506   0.000000
     6  C    0.017217  -0.000000
     7  C    0.011423   0.000000
     8  C   -0.062505  -0.000000
     9  C    0.017207   0.000000
    10  C    0.011420   0.000000
    11  C    0.015872  -0.000000
    12  C   -0.002890  -0.000000
    13  C    0.117153   0.000000
    14  F   -0.122555  -0.000000
    15  H    0.008016   0.000000
    16  H    0.016315  -0.000000
    17  H   -0.000984  -0.000000
    18  H    0.002932  -0.000000
    19  H   -0.000957   0.000000
    20  H    0.002937   0.000000
    21  H    0.008012   0.000000
    22  H    0.016322   0.000000
 Sum of Mulliken charges =  -0.00000  -0.00000

 Dipole moment (field-independent basis, Debye):
    X=              0.0000    Y=             -1.7617    Z=              0.0000  Tot=              1.7617
 Quadrupole moment (field-independent basis, Debye-Ang):
   XX=            -63.6149   YY=            -75.5800   ZZ=            -81.1651
   XY=              0.0001   XZ=              0.3770   YZ=              0.0000

 Normal termination of Gaussian 16 at Thu Jul 23 10:10:08 2020.
