 Gaussian 16, Revision A.03,
 Gaussian 16:  EM64L-G16RevA.03 25-Dec-2016

 ---------------------------------------------------------------
 #P uLC-wPBE/cc-pVDZ iop(3/107=0460900000, 3/108=0460900000) opt
 ---------------------------------------------------------------

 -------------
 H32 C36 S3 O6
 -------------
 Symbolic Z-matrix:
 Charge =  0 Multiplicity = 1

 SCF Done:  E(ULC-wPBE) =  -3035.30492886     A.U. after   18 cycles
 SCF Done:  E(ULC-wPBE) =  -3035.37711373     A.U. after   14 cycles
 SCF Done:  E(ULC-wPBE) =  -3035.43235826     A.U. after   16 cycles
 SCF Done:  E(ULC-wPBE) =  -3035.44713416     A.U. after   14 cycles
 SCF Done:  E(ULC-wPBE) =  -3035.45285716     A.U. after   14 cycles
 SCF Done:  E(ULC-wPBE) =  -3035.45793619     A.U. after   15 cycles
 SCF Done:  E(ULC-wPBE) =  -3035.46235787     A.U. after   14 cycles
 SCF Done:  E(ULC-wPBE) =  -3035.46612758     A.U. after   14 cycles
 SCF Done:  E(ULC-wPBE) =  -3035.46720439     A.U. after   14 cycles
 SCF Done:  E(ULC-wPBE) =  -3035.46781495     A.U. after   13 cycles
 SCF Done:  E(ULC-wPBE) =  -3035.46808623     A.U. after   11 cycles
 SCF Done:  E(ULC-wPBE) =  -3035.46809413     A.U. after   12 cycles
 SCF Done:  E(ULC-wPBE) =  -3035.46809848     A.U. after   10 cycles
 SCF Done:  E(ULC-wPBE) =  -3035.46809975     A.U. after   10 cycles
 SCF Done:  E(ULC-wPBE) =  -3035.46810063     A.U. after   10 cycles
 SCF Done:  E(ULC-wPBE) =  -3035.46810115     A.U. after    8 cycles
 SCF Done:  E(ULC-wPBE) =  -3035.46810131     A.U. after    8 cycles
 SCF Done:  E(ULC-wPBE) =  -3035.46810147     A.U. after    7 cycles
 SCF Done:  E(ULC-wPBE) =  -3035.46810152     A.U. after    7 cycles
 SCF Done:  E(ULC-wPBE) =  -3035.46810152     A.U. after    6 cycles
 Optimization completed.
    -- Stationary point found.

                         Standard orientation:
 ---------------------------------------------------------------------
 Center     Atomic      Atomic             Coordinates (Angstroms)
 Number     Number       Type             X           Y           Z
 ---------------------------------------------------------------------
      1          6           0      -11.566589   -0.308443   -0.253025
      2          6           0      -11.086985    0.944086   -0.582101
      3          6           0       -9.731724    1.211182   -0.456460
      4          6           0       -8.833204    0.252508    0.000098
      5          6           0       -9.341340   -1.018357    0.321881
      6          8           0       -8.437607   -1.930546    0.745918
      7          6           0       -8.875919   -3.225584    1.055744
      8          6           0      -10.695886   -1.291402    0.196415
      9          6           0       -7.403466    0.579870    0.131159
     10          6           0       -6.857872    1.808484    0.411542
     11          8           0       -7.641061    2.879177    0.683636
     12          6           0       -7.001483    4.043708    1.135313
     13          6           0       -5.436415    1.823565    0.381013
     14          6           0       -4.909732    0.604706    0.071428
     15         16           0       -6.140287   -0.557899   -0.168200
     16          6           0       -3.488594    0.244197   -0.036520
     17          6           0       -3.028341   -1.014108    0.323980
     18          6           0       -1.681994   -1.320209    0.217915
     19          6           0       -0.747659   -0.401010   -0.246940
     20          6           0       -1.223795    0.873828   -0.602525
     21          8           0       -0.296217    1.752205   -1.044188
     22          6           0       -0.699566    3.046731   -1.400888
     23          6           0       -2.569717    1.184336   -0.502845
     24          6           0        0.672558   -0.768190   -0.353826
     25          6           0        1.190394   -2.023401   -0.564340
     26          8           0        0.383987   -3.089187   -0.779792
     27          6           0        0.996908   -4.290941   -1.167414
     28          6           0        2.610691   -2.069805   -0.529192
     29          6           0        3.165358   -0.848194   -0.286631
     30         16           0        1.962811    0.354736   -0.115342
     31          6           0        4.594522   -0.515777   -0.194874
     32          6           0        5.085196    0.707742   -0.627533
     33          6           0        6.438460    0.987241   -0.534631
     34          6           0        7.348450    0.074957   -0.012836
     35          6           0        6.841930   -1.164696    0.416139
     36          8           0        7.747683   -2.036651    0.912233
     37          6           0        7.312759   -3.297662    1.344214
     38          6           0        5.489102   -1.448542    0.329875
     39          6           0        8.777716    0.414324    0.077511
     40          6           0        9.320923    1.665869    0.238127
     41          8           0        8.536389    2.756807    0.402540
     42          6           0        9.175220    3.962688    0.731430
     43          6           0       10.745326    1.679848    0.201962
     44          6           0       11.253588    0.437043    0.005511
     45         16           0       10.042205   -0.747090   -0.110894
     46          1           0      -12.627231   -0.536880   -0.346453
     47          1           0      -11.761151    1.718581   -0.942527
     48          1           0       -9.349866    2.194686   -0.713888
     49          1           0       -9.332619   -3.717921    0.185441
     50          1           0       -7.986576   -3.785281    1.356941
     51          1           0       -9.594532   -3.220757    1.887492
     52          1           0      -11.084036   -2.273953    0.449745
     53          1           0       -6.346009    4.473462    0.364081
     54          1           0       -7.792613    4.762304    1.365818
     55          1           0       -6.414213    3.855154    2.045059
     56          1           0       -4.823260    2.688039    0.614903
     57          1           0       -3.721011   -1.757470    0.714084
     58          1           0       -1.336205   -2.307409    0.508286
     59          1           0       -1.155486    3.576623   -0.552511
     60          1           0        0.206863    3.575349   -1.706963
     61          1           0       -1.406988    3.031838   -2.241856
     62          1           0       -2.930203    2.160110   -0.814888
     63          1           0        0.189360   -5.001857   -1.361705
     64          1           0        1.589555   -4.164219   -2.084259
     65          1           0        1.640790   -4.693999   -0.372472
     66          1           0        3.203616   -2.960089   -0.712909
     67          1           0        4.411312    1.442854   -1.063469
     68          1           0        6.809238    1.947120   -0.880856
     69          1           0        8.205662   -3.828351    1.684522
     70          1           0        6.846033   -3.866443    0.527463
     71          1           0        6.604085   -3.215791    2.180268
     72          1           0        5.104245   -2.395117    0.697802
     73          1           0        8.383122    4.698548    0.893882
     74          1           0        9.824720    4.314391   -0.083022
     75          1           0        9.768015    3.867255    1.652061
     76          1           0       11.360231    2.566378    0.318587
     77          1           0       12.301195    0.158881   -0.052519
 ---------------------------------------------------------------------

 The electronic state is 1-A.
 Alpha  occ. eigenvalues --  -88.34286 -88.34077 -88.33890 -19.04407 -19.04288
 Alpha  occ. eigenvalues --  -19.04031 -19.03976 -19.03973 -19.03774 -10.21635
 Alpha  occ. eigenvalues --  -10.21502 -10.21138 -10.20938 -10.20876 -10.20768
 Alpha  occ. eigenvalues --  -10.20659 -10.20651 -10.20644 -10.20595 -10.20456
 Alpha  occ. eigenvalues --  -10.20401 -10.18347 -10.18170 -10.17764 -10.17252
 Alpha  occ. eigenvalues --  -10.17138 -10.17033 -10.16912 -10.16882 -10.16438
 Alpha  occ. eigenvalues --  -10.16322 -10.16039 -10.15343 -10.15101 -10.15075
 Alpha  occ. eigenvalues --  -10.15049 -10.15017 -10.14932 -10.14882 -10.14871
 Alpha  occ. eigenvalues --  -10.14622 -10.14584 -10.14427 -10.14282 -10.13961
 Alpha  occ. eigenvalues --   -7.95142  -7.94919  -7.94736  -5.96402  -5.96187
 Alpha  occ. eigenvalues --   -5.96002  -5.95842  -5.95628  -5.95450  -5.95445
 Alpha  occ. eigenvalues --   -5.95212  -5.95029  -1.24260  -1.24139  -1.23816
 Alpha  occ. eigenvalues --   -1.23685  -1.23631  -1.23429  -1.07185  -1.06848
 Alpha  occ. eigenvalues --   -1.06438  -1.04058  -1.03354  -1.02668  -0.97294
 Alpha  occ. eigenvalues --   -0.95729  -0.93833  -0.92628  -0.92374  -0.91996
 Alpha  occ. eigenvalues --   -0.91211  -0.91046  -0.90722  -0.89821  -0.88688
 Alpha  occ. eigenvalues --   -0.87780  -0.86758  -0.86619  -0.85828  -0.84937
 Alpha  occ. eigenvalues --   -0.83917  -0.82218  -0.78888  -0.76953  -0.76319
 Alpha  occ. eigenvalues --   -0.75454  -0.74910  -0.73720  -0.72067  -0.71206
 Alpha  occ. eigenvalues --   -0.70871  -0.69801  -0.69578  -0.69398  -0.68743
 Alpha  occ. eigenvalues --   -0.68327  -0.67529  -0.65998  -0.64602  -0.63839
 Alpha  occ. eigenvalues --   -0.63271  -0.62922  -0.62431  -0.62232  -0.62079
 Alpha  occ. eigenvalues --   -0.61777  -0.61773  -0.61694  -0.61496  -0.60993
 Alpha  occ. eigenvalues --   -0.60756  -0.60480  -0.59923  -0.59286  -0.58526
 Alpha  occ. eigenvalues --   -0.57621  -0.56965  -0.56731  -0.56652  -0.55841
 Alpha  occ. eigenvalues --   -0.55449  -0.55168  -0.55006  -0.54784  -0.54415
 Alpha  occ. eigenvalues --   -0.54198  -0.53587  -0.53277  -0.53001  -0.52363
 Alpha  occ. eigenvalues --   -0.52170  -0.51322  -0.50817  -0.50739  -0.50330
 Alpha  occ. eigenvalues --   -0.50077  -0.49648  -0.48858  -0.48388  -0.47837
 Alpha  occ. eigenvalues --   -0.47053  -0.46844  -0.46550  -0.46472  -0.46197
 Alpha  occ. eigenvalues --   -0.45453  -0.45318  -0.45185  -0.44925  -0.44565
 Alpha  occ. eigenvalues --   -0.44377  -0.44176  -0.44108  -0.43768  -0.43431
 Alpha  occ. eigenvalues --   -0.40066  -0.38737  -0.36949  -0.34729  -0.34135
 Alpha  occ. eigenvalues --   -0.33848  -0.33544  -0.33363  -0.32990  -0.30836
 Alpha  occ. eigenvalues --   -0.28907  -0.26901
 Alpha virt. eigenvalues --    0.02147   0.04492   0.07527   0.09376   0.09604
 Alpha virt. eigenvalues --    0.09836   0.10443   0.12276   0.13887   0.15141
 Alpha virt. eigenvalues --    0.15341   0.15773   0.16152   0.16296   0.16410

  Beta  occ. eigenvalues --  -88.34286 -88.34077 -88.33890 -19.04407 -19.04288
  Beta  occ. eigenvalues --  -19.04031 -19.03976 -19.03973 -19.03774 -10.21635
  Beta  occ. eigenvalues --  -10.21502 -10.21138 -10.20938 -10.20876 -10.20768
  Beta  occ. eigenvalues --  -10.20659 -10.20651 -10.20644 -10.20595 -10.20456
  Beta  occ. eigenvalues --  -10.20401 -10.18347 -10.18170 -10.17764 -10.17252
  Beta  occ. eigenvalues --  -10.17138 -10.17033 -10.16912 -10.16882 -10.16438
  Beta  occ. eigenvalues --  -10.16322 -10.16039 -10.15343 -10.15101 -10.15075
  Beta  occ. eigenvalues --  -10.15049 -10.15017 -10.14932 -10.14882 -10.14871
  Beta  occ. eigenvalues --  -10.14622 -10.14584 -10.14427 -10.14282 -10.13961
  Beta  occ. eigenvalues --   -7.95142  -7.94919  -7.94736  -5.96402  -5.96187
  Beta  occ. eigenvalues --   -5.96002  -5.95842  -5.95628  -5.95450  -5.95445
  Beta  occ. eigenvalues --   -5.95212  -5.95029  -1.24260  -1.24139  -1.23816
  Beta  occ. eigenvalues --   -1.23685  -1.23631  -1.23429  -1.07185  -1.06848
  Beta  occ. eigenvalues --   -1.06438  -1.04058  -1.03354  -1.02668  -0.97294
  Beta  occ. eigenvalues --   -0.95729  -0.93833  -0.92628  -0.92374  -0.91996
  Beta  occ. eigenvalues --   -0.91211  -0.91046  -0.90722  -0.89821  -0.88688
  Beta  occ. eigenvalues --   -0.87780  -0.86758  -0.86619  -0.85828  -0.84937
  Beta  occ. eigenvalues --   -0.83917  -0.82218  -0.78888  -0.76953  -0.76319
  Beta  occ. eigenvalues --   -0.75454  -0.74910  -0.73720  -0.72067  -0.71206
  Beta  occ. eigenvalues --   -0.70871  -0.69801  -0.69578  -0.69398  -0.68743
  Beta  occ. eigenvalues --   -0.68327  -0.67529  -0.65998  -0.64602  -0.63839
  Beta  occ. eigenvalues --   -0.63271  -0.62922  -0.62431  -0.62232  -0.62079
  Beta  occ. eigenvalues --   -0.61777  -0.61773  -0.61694  -0.61496  -0.60993
  Beta  occ. eigenvalues --   -0.60756  -0.60480  -0.59923  -0.59286  -0.58526
  Beta  occ. eigenvalues --   -0.57621  -0.56965  -0.56731  -0.56652  -0.55841
  Beta  occ. eigenvalues --   -0.55449  -0.55168  -0.55006  -0.54784  -0.54415
  Beta  occ. eigenvalues --   -0.54198  -0.53587  -0.53277  -0.53001  -0.52363
  Beta  occ. eigenvalues --   -0.52170  -0.51322  -0.50817  -0.50739  -0.50330
  Beta  occ. eigenvalues --   -0.50077  -0.49648  -0.48858  -0.48388  -0.47837
  Beta  occ. eigenvalues --   -0.47053  -0.46844  -0.46550  -0.46472  -0.46197
  Beta  occ. eigenvalues --   -0.45453  -0.45318  -0.45185  -0.44925  -0.44565
  Beta  occ. eigenvalues --   -0.44377  -0.44176  -0.44108  -0.43768  -0.43431
  Beta  occ. eigenvalues --   -0.40066  -0.38737  -0.36949  -0.34729  -0.34135
  Beta  occ. eigenvalues --   -0.33848  -0.33544  -0.33363  -0.32990  -0.30836
  Beta  occ. eigenvalues --   -0.28907  -0.26901
  Beta virt. eigenvalues --    0.02147   0.04492   0.07527   0.09376   0.09604
  Beta virt. eigenvalues --    0.09836   0.10443   0.12276   0.13887   0.15141
  Beta virt. eigenvalues --    0.15341   0.15773   0.16152   0.16296   0.16410

 Mulliken charges and spin densities:
               1          2
     1  C   -0.000252  -0.000000
     2  C   -0.004454   0.000000
     3  C    0.008212  -0.000000
     4  C   -0.019637  -0.000000
     5  C    0.117240   0.000000
     6  O   -0.266316   0.000000
     7  C    0.038140  -0.000000
     8  C   -0.060764  -0.000000
     9  C   -0.187276   0.000000
    10  C    0.161575  -0.000000
    11  O   -0.270776  -0.000000
    12  C    0.037357   0.000000
    13  C   -0.023569  -0.000000
    14  C   -0.163275  -0.000000
    15  S    0.194293   0.000000
    16  C    0.032296   0.000000
    17  C   -0.012728  -0.000000
    18  C    0.018938  -0.000000
    19  C   -0.005672  -0.000000
    20  C    0.129192   0.000000
    21  O   -0.268115   0.000000
    22  C    0.040572  -0.000000
    23  C   -0.058628  -0.000000
    24  C   -0.188876   0.000000
    25  C    0.158763  -0.000000
    26  O   -0.271711   0.000000
    27  C    0.037594  -0.000000
    28  C   -0.020972   0.000000
    29  C   -0.163121  -0.000000
    30  S    0.193887   0.000000
    31  C    0.031338   0.000000
    32  C   -0.013419  -0.000000
    33  C    0.021362   0.000000
    34  C   -0.003768  -0.000000
    35  C    0.130989   0.000000
    36  O   -0.267792  -0.000000
    37  C    0.040212  -0.000000
    38  C   -0.059442  -0.000000
    39  C   -0.194290   0.000000
    40  C    0.143121  -0.000000
    41  O   -0.269953  -0.000000
    42  C    0.034841  -0.000000
    43  C   -0.012393   0.000000
    44  C   -0.145678  -0.000000
    45  S    0.183245  -0.000000
    46  H    0.009244  -0.000000
    47  H    0.004940   0.000000
    48  H    0.011292   0.000000
    49  H    0.053031   0.000000
    50  H    0.067172   0.000000
    51  H    0.053287   0.000000
    52  H    0.011922  -0.000000
    53  H    0.048001  -0.000000
    54  H    0.064647  -0.000000
    55  H    0.053843  -0.000000
    56  H    0.011671   0.000000
    57  H    0.006498  -0.000000
    58  H    0.011743   0.000000
    59  H    0.050594   0.000000
    60  H    0.067736   0.000000
    61  H    0.056704   0.000000
    62  H    0.004561   0.000000
    63  H    0.065463   0.000000
    64  H    0.054476   0.000000
    65  H    0.048436   0.000000
    66  H    0.011937   0.000000
    67  H    0.006725  -0.000000
    68  H    0.012573   0.000000
    69  H    0.068070   0.000000
    70  H    0.050519   0.000000
    71  H    0.056756   0.000000
    72  H    0.004793   0.000000
    73  H    0.065402   0.000000
    74  H    0.051259  -0.000000
    75  H    0.052682  -0.000000
    76  H    0.017849  -0.000000
    77  H    0.045891  -0.000000
 Sum of Mulliken charges =  -0.00000  -0.00000

 Dipole moment (field-independent basis, Debye):
    X=              1.9138    Y=              0.2210    Z=              0.8575  Tot=              2.1087
 Quadrupole moment (field-independent basis, Debye-Ang):
   XX=           -245.0153   YY=           -215.9753   ZZ=           -284.7649
   XY=              9.6321   XZ=              0.6042   YZ=             -4.1087

 Normal termination of Gaussian 16 at Sun Jul 26 18:53:21 2020.
