 Gaussian 16, Revision A.03,
 Gaussian 16:  EM64L-G16RevA.03 25-Dec-2016

 ---------------------------------------------------------------
 #P uLC-wPBE/cc-pVDZ iop(3/107=0312400000, 3/108=0312400000) opt
 ---------------------------------------------------------------

 ----------
 H20 C36 F6
 ----------
 Symbolic Z-matrix:
 Charge =  0 Multiplicity = 1

 SCF Done:  E(ULC-wPBE) =  -1981.46243842     A.U. after   17 cycles
 SCF Done:  E(ULC-wPBE) =  -1981.52807360     A.U. after   15 cycles
 SCF Done:  E(ULC-wPBE) =  -1981.57339684     A.U. after   16 cycles
 SCF Done:  E(ULC-wPBE) =  -1981.57587051     A.U. after   15 cycles
 SCF Done:  E(ULC-wPBE) =  -1981.57631214     A.U. after   14 cycles
 SCF Done:  E(ULC-wPBE) =  -1981.57639303     A.U. after   15 cycles
 SCF Done:  E(ULC-wPBE) =  -1981.57642636     A.U. after   12 cycles
 SCF Done:  E(ULC-wPBE) =  -1981.57643374     A.U. after    9 cycles
 SCF Done:  E(ULC-wPBE) =  -1981.57643532     A.U. after    8 cycles
 SCF Done:  E(ULC-wPBE) =  -1981.57643574     A.U. after    8 cycles
 SCF Done:  E(ULC-wPBE) =  -1981.57643569     A.U. after    7 cycles
 SCF Done:  E(ULC-wPBE) =  -1981.57643574     A.U. after    6 cycles
 Optimization completed.
    -- Stationary point found.

                         Standard orientation:
 ---------------------------------------------------------------------
 Center     Atomic      Atomic             Coordinates (Angstroms)
 Number     Number       Type             X           Y           Z
 ---------------------------------------------------------------------
      1          6           0      -12.222011   -0.191035   -0.042313
      2          6           0      -11.549946    0.872093    0.552890
      3          6           0      -10.162369    0.878639    0.548213
      4          9           0       -9.531951    1.921737    1.129552
      5          6           0       -9.401737   -0.140010   -0.031274
      6          6           0      -10.107222   -1.194527   -0.626716
      7          6           0      -11.498317   -1.226294   -0.632114
      8          6           0       -7.916300   -0.104237   -0.004937
      9          6           0       -7.198161    0.193246    1.160562
     10          6           0       -5.808564    0.205782    1.179999
     11          6           0       -5.072944   -0.073854    0.021524
     12          6           0       -5.771815   -0.366488   -1.152675
     13          6           0       -7.157992   -0.377096   -1.145484
     14          9           0       -7.788411   -0.671823   -2.302054
     15          6           0       -3.585850   -0.059954    0.031489
     16          6           0       -2.878445   -0.599853    1.109010
     17          6           0       -1.492525   -0.580675    1.102946
     18          9           0       -0.853480   -1.119585    2.163020
     19          6           0       -0.742226   -0.038599    0.056987
     20          6           0       -1.468902    0.503529   -1.011286
     21          6           0       -2.858441    0.492266   -1.030316
     22          6           0        0.742831   -0.049202    0.078272
     23          6           0        1.475475   -1.190004    0.431685
     24          6           0        2.865177   -1.195200    0.430935
     25          6           0        3.586662   -0.047020    0.080665
     26          6           0        2.873166    1.102568   -0.269076
     27          6           0        1.487241    1.081773   -0.264818
     28          9           0        0.842171    2.214350   -0.615930
     29          6           0        5.073762   -0.041944    0.079951
     30          6           0        5.786935   -1.142015   -0.404056
     31          6           0        7.172978   -1.122777   -0.396163
     32          9           0        7.817614   -2.203354   -0.884778
     33          6           0        7.917485   -0.041452    0.080212
     34          6           0        7.185138    1.052786    0.558687
     35          6           0        5.795398    1.056945    0.562802
     36          6           0        9.403284   -0.062150    0.085439
     37          6           0       10.127641   -1.168604    0.549503
     38          6           0       11.518997   -1.171754    0.564337
     39          6           0       12.223978   -0.060299    0.104925
     40          6           0       11.533015    1.051797   -0.366197
     41          6           0       10.145552    1.031511   -0.367294
     42          9           0        9.496610    2.121066   -0.831254
     43          1           0      -13.316220   -0.208509   -0.044047
     44          1           0      -12.079015    1.705923    1.022173
     45          1           0       -9.542779   -2.007128   -1.091816
     46          1           0      -12.020073   -2.065896   -1.100645
     47          1           0       -7.751591    0.424662    2.074336
     48          1           0       -5.285717    0.459741    2.106878
     49          1           0       -5.253881   -0.609704   -2.084462
     50          1           0       -3.389363   -1.060313    1.959036
     51          1           0       -0.922742    0.948877   -1.846784
     52          1           0       -3.388414    0.941075   -1.875662
     53          1           0        0.933916   -2.095242    0.718080
     54          1           0        3.399691   -2.101938    0.729353
     55          1           0        3.379502    2.024090   -0.569188
     56          1           0        5.280550   -2.017851   -0.818939
     57          1           0        7.727251    1.918970    0.946897
     58          1           0        5.261231    1.920300    0.970517
     59          1           0        9.577911   -2.042563    0.908999
     60          1           0       12.055709   -2.048878    0.937522
     61          1           0       13.318297   -0.056117    0.112302
     62          1           0       12.047087    1.941632   -0.739432
 ---------------------------------------------------------------------

 The electronic state is 1-A.
 Alpha  occ. eigenvalues --  -24.46226 -24.46203 -24.46103 -24.46100 -24.45943
 Alpha  occ. eigenvalues --  -24.45927 -10.16484 -10.16475 -10.16383 -10.16382
 Alpha  occ. eigenvalues --  -10.16163 -10.16152 -10.10323 -10.10319 -10.10267
 Alpha  occ. eigenvalues --  -10.10266 -10.10194 -10.10183 -10.10061 -10.10061
 Alpha  occ. eigenvalues --  -10.09950 -10.09946 -10.09186 -10.09176 -10.09090
 Alpha  occ. eigenvalues --  -10.09089 -10.09010 -10.08999 -10.08887 -10.08875
 Alpha  occ. eigenvalues --  -10.08868 -10.08850 -10.08806 -10.08805 -10.08605
 Alpha  occ. eigenvalues --  -10.08595 -10.08533 -10.08520 -10.08467 -10.08465
 Alpha  occ. eigenvalues --  -10.08233 -10.08224  -1.30485  -1.30445  -1.30360
 Alpha  occ. eigenvalues --   -1.30358  -1.30176  -1.30161  -0.99915  -0.99494
 Alpha  occ. eigenvalues --   -0.98725  -0.98059  -0.97164  -0.96528  -0.92416
 Alpha  occ. eigenvalues --   -0.90849  -0.89030  -0.86892  -0.86671  -0.86617
 Alpha  occ. eigenvalues --   -0.85989  -0.85953  -0.85798  -0.85757  -0.84205
 Alpha  occ. eigenvalues --   -0.82232  -0.77133  -0.75217  -0.74611  -0.74285
 Alpha  occ. eigenvalues --   -0.73597  -0.72735  -0.72208  -0.71561  -0.70952
 Alpha  occ. eigenvalues --   -0.70859  -0.70035  -0.69833  -0.66250  -0.65959
 Alpha  occ. eigenvalues --   -0.65023  -0.64806  -0.62765  -0.62254  -0.61636
 Alpha  occ. eigenvalues --   -0.61387  -0.60859  -0.60344  -0.60069  -0.59956
 Alpha  occ. eigenvalues --   -0.58902  -0.58722  -0.58387  -0.58054  -0.57504
 Alpha  occ. eigenvalues --   -0.57040  -0.56838  -0.56793  -0.56643  -0.56458
 Alpha  occ. eigenvalues --   -0.56408  -0.56164  -0.54885  -0.54092  -0.54006
 Alpha  occ. eigenvalues --   -0.53794  -0.53783  -0.53745  -0.53053  -0.51679
 Alpha  occ. eigenvalues --   -0.50763  -0.50418  -0.50227  -0.49878  -0.49819
 Alpha  occ. eigenvalues --   -0.48984  -0.48910  -0.48669  -0.48239  -0.48196
 Alpha  occ. eigenvalues --   -0.47677  -0.47259  -0.47021  -0.46606  -0.46529
 Alpha  occ. eigenvalues --   -0.46110  -0.45843  -0.45759  -0.45461  -0.45094
 Alpha  occ. eigenvalues --   -0.43798  -0.42922  -0.42491  -0.40076  -0.38676
 Alpha  occ. eigenvalues --   -0.36845  -0.35430  -0.35039  -0.35036  -0.34883
 Alpha  occ. eigenvalues --   -0.34678  -0.34555  -0.33749  -0.32051  -0.30523
 Alpha virt. eigenvalues --    0.00276   0.02184   0.04728   0.05998   0.06125
 Alpha virt. eigenvalues --    0.06197   0.06394   0.06510   0.06741   0.07220
 Alpha virt. eigenvalues --    0.09445   0.11037   0.13948   0.13961   0.14646

  Beta  occ. eigenvalues --  -24.46226 -24.46203 -24.46103 -24.46100 -24.45943
  Beta  occ. eigenvalues --  -24.45927 -10.16484 -10.16475 -10.16383 -10.16382
  Beta  occ. eigenvalues --  -10.16163 -10.16152 -10.10323 -10.10319 -10.10267
  Beta  occ. eigenvalues --  -10.10266 -10.10194 -10.10183 -10.10061 -10.10061
  Beta  occ. eigenvalues --  -10.09950 -10.09946 -10.09186 -10.09176 -10.09090
  Beta  occ. eigenvalues --  -10.09089 -10.09010 -10.08999 -10.08887 -10.08875
  Beta  occ. eigenvalues --  -10.08868 -10.08850 -10.08806 -10.08805 -10.08605
  Beta  occ. eigenvalues --  -10.08595 -10.08533 -10.08520 -10.08467 -10.08465
  Beta  occ. eigenvalues --  -10.08233 -10.08224  -1.30485  -1.30445  -1.30360
  Beta  occ. eigenvalues --   -1.30358  -1.30176  -1.30161  -0.99915  -0.99494
  Beta  occ. eigenvalues --   -0.98725  -0.98059  -0.97164  -0.96528  -0.92416
  Beta  occ. eigenvalues --   -0.90849  -0.89030  -0.86892  -0.86671  -0.86617
  Beta  occ. eigenvalues --   -0.85989  -0.85953  -0.85798  -0.85757  -0.84205
  Beta  occ. eigenvalues --   -0.82232  -0.77133  -0.75217  -0.74611  -0.74285
  Beta  occ. eigenvalues --   -0.73597  -0.72735  -0.72208  -0.71561  -0.70952
  Beta  occ. eigenvalues --   -0.70859  -0.70035  -0.69833  -0.66250  -0.65959
  Beta  occ. eigenvalues --   -0.65023  -0.64806  -0.62765  -0.62254  -0.61636
  Beta  occ. eigenvalues --   -0.61387  -0.60859  -0.60344  -0.60069  -0.59956
  Beta  occ. eigenvalues --   -0.58902  -0.58722  -0.58387  -0.58054  -0.57504
  Beta  occ. eigenvalues --   -0.57040  -0.56838  -0.56793  -0.56643  -0.56458
  Beta  occ. eigenvalues --   -0.56408  -0.56164  -0.54885  -0.54092  -0.54006
  Beta  occ. eigenvalues --   -0.53794  -0.53783  -0.53745  -0.53053  -0.51679
  Beta  occ. eigenvalues --   -0.50763  -0.50418  -0.50227  -0.49878  -0.49819
  Beta  occ. eigenvalues --   -0.48984  -0.48910  -0.48669  -0.48239  -0.48196
  Beta  occ. eigenvalues --   -0.47677  -0.47259  -0.47021  -0.46606  -0.46529
  Beta  occ. eigenvalues --   -0.46110  -0.45843  -0.45759  -0.45461  -0.45094
  Beta  occ. eigenvalues --   -0.43798  -0.42922  -0.42491  -0.40076  -0.38676
  Beta  occ. eigenvalues --   -0.36845  -0.35430  -0.35039  -0.35036  -0.34883
  Beta  occ. eigenvalues --   -0.34678  -0.34555  -0.33749  -0.32051  -0.30523
  Beta virt. eigenvalues --    0.00276   0.02184   0.04728   0.05998   0.06125
  Beta virt. eigenvalues --    0.06197   0.06394   0.06510   0.06741   0.07220
  Beta virt. eigenvalues --    0.09445   0.11037   0.13948   0.13961   0.14646

 Mulliken charges and spin densities:
               1          2
     1  C    0.022341  -0.000000
     2  C    0.006162  -0.000000
     3  C    0.094332   0.000000
     4  F   -0.128212  -0.000000
     5  C   -0.047030   0.000000
     6  C    0.027388   0.000000
     7  C    0.017103   0.000000
     8  C   -0.041278  -0.000000
     9  C    0.041053  -0.000000
    10  C    0.008181  -0.000000
    11  C    0.015369   0.000000
    12  C    0.002199  -0.000000
    13  C    0.104590   0.000000
    14  F   -0.126273  -0.000000
    15  C    0.015591   0.000000
    16  C    0.003099  -0.000000
    17  C    0.103318   0.000000
    18  F   -0.126518   0.000000
    19  C   -0.041756  -0.000000
    20  C    0.039033   0.000000
    21  C    0.008741  -0.000000
    22  C   -0.041719   0.000000
    23  C    0.039039  -0.000000
    24  C    0.008152   0.000000
    25  C    0.015168   0.000000
    26  C    0.003079  -0.000000
    27  C    0.103534  -0.000000
    28  F   -0.126049   0.000000
    29  C    0.017417   0.000000
    30  C    0.002031  -0.000000
    31  C    0.102329   0.000000
    32  F   -0.126324  -0.000000
    33  C   -0.038246  -0.000000
    34  C    0.039748   0.000000
    35  C    0.008217  -0.000000
    36  C   -0.046502  -0.000000
    37  C    0.027313   0.000000
    38  C    0.017155  -0.000000
    39  C    0.022473   0.000000
    40  C    0.006254  -0.000000
    41  C    0.094073  -0.000000
    42  F   -0.128492   0.000000
    43  H    0.003149  -0.000000
    44  H    0.010640   0.000000
    45  H   -0.002030   0.000000
    46  H   -0.001635  -0.000000
    47  H   -0.000722   0.000000
    48  H   -0.007571   0.000000
    49  H    0.003741   0.000000
    50  H    0.004082  -0.000000
    51  H   -0.000180  -0.000000
    52  H   -0.006968  -0.000000
    53  H   -0.000734   0.000000
    54  H   -0.008414  -0.000000
    55  H    0.005412  -0.000000
    56  H    0.004022   0.000000
    57  H   -0.000874   0.000000
    58  H   -0.007926   0.000000
    59  H   -0.002249  -0.000000
    60  H   -0.001638   0.000000
    61  H    0.003187   0.000000
    62  H    0.010628  -0.000000
 Sum of Mulliken charges =  -0.00000  -0.00000

 Dipole moment (field-independent basis, Debye):
    X=              0.0220    Y=             -1.2086    Z=              0.7518  Tot=              1.4235
 Quadrupole moment (field-independent basis, Debye-Ang):
   XX=           -182.0844   YY=           -230.1094   ZZ=           -235.0706
   XY=              6.1434   XZ=              3.3792   YZ=             -0.1440

 Normal termination of Gaussian 16 at Sat Jul 25 09:03:06 2020.
