 Gaussian 16, Revision A.03,
 Gaussian 16:  EM64L-G16RevA.03 25-Dec-2016

 ---------------------------------------------------------------
 #P uLC-wPBE/cc-pVDZ iop(3/107=0366100000, 3/108=0366100000) opt
 ---------------------------------------------------------------

 -----------------
 H32 C55 S5 O5 F10
 -----------------
 Symbolic Z-matrix:
 Charge =  0 Multiplicity = 1

 SCF Done:  E(ULC-wPBE) =  -5477.49733557     A.U. after   18 cycles
 SCF Done:  E(ULC-wPBE) =  -5477.58704917     A.U. after   14 cycles
 SCF Done:  E(ULC-wPBE) =  -5477.67063875     A.U. after   15 cycles
 SCF Done:  E(ULC-wPBE) =  -5477.69433998     A.U. after   14 cycles
 SCF Done:  E(ULC-wPBE) =  -5477.70276610     A.U. after   15 cycles
 SCF Done:  E(ULC-wPBE) =  -5477.70679813     A.U. after   15 cycles
 SCF Done:  E(ULC-wPBE) =  -5477.70927829     A.U. after   15 cycles
 SCF Done:  E(ULC-wPBE) =  -5477.71089504     A.U. after   14 cycles
 SCF Done:  E(ULC-wPBE) =  -5477.71191118     A.U. after   12 cycles
 SCF Done:  E(ULC-wPBE) =  -5477.71260323     A.U. after   13 cycles
 SCF Done:  E(ULC-wPBE) =  -5477.71414011     A.U. after   12 cycles
 SCF Done:  E(ULC-wPBE) =  -5477.71413896     A.U. after   11 cycles
 SCF Done:  E(ULC-wPBE) =  -5477.71415468     A.U. after   12 cycles
 SCF Done:  E(ULC-wPBE) =  -5477.71416681     A.U. after   11 cycles
 SCF Done:  E(ULC-wPBE) =  -5477.71417399     A.U. after   11 cycles
 SCF Done:  E(ULC-wPBE) =  -5477.71417453     A.U. after    7 cycles
 SCF Done:  E(ULC-wPBE) =  -5477.71417496     A.U. after    8 cycles
 SCF Done:  E(ULC-wPBE) =  -5477.71417501     A.U. after    6 cycles
 SCF Done:  E(ULC-wPBE) =  -5477.71417497     A.U. after    6 cycles
 SCF Done:  E(ULC-wPBE) =  -5477.71417503     A.U. after    6 cycles
 Optimization completed.
    -- Stationary point found.

                         Standard orientation:
 ---------------------------------------------------------------------
 Center     Atomic      Atomic             Coordinates (Angstroms)
 Number     Number       Type             X           Y           Z
 ---------------------------------------------------------------------
      1          6           0       18.577620   -3.025273   -0.248625
      2          6           0       18.414463   -2.022768   -1.189812
      3          6           0       17.286042   -1.221070   -1.100366
      4          9           0       17.115004   -0.262538   -2.021113
      5          6           0       16.321359   -1.369469   -0.109248
      6          6           0       16.513917   -2.404593    0.828071
      7          8           0       15.545396   -2.522898    1.763892
      8          6           0       15.672836   -3.537833    2.735865
      9          6           0       17.636788   -3.226863    0.758125
     10          6           0       15.159081   -0.468825   -0.059793
     11          6           0       15.165194    0.894968   -0.128710
     12          9           0       16.288949    1.616611   -0.184472
     13          6           0       13.888165    1.508071   -0.118543
     14          6           0       12.887470    0.579370   -0.038010
     15         16           0       13.523600   -1.022980    0.021663
     16          6           0       11.434599    0.821434    0.011946
     17          6           0       10.595472   -0.022390    0.734147
     18          6           0        9.239194    0.254342    0.758925
     19          9           0        8.442187   -0.562742    1.465908
     20          6           0        8.660459    1.334414    0.104774
     21          6           0        9.525937    2.169865   -0.632162
     22          8           0        8.931009    3.187341   -1.285980
     23          6           0        9.742212    4.089239   -2.007060
     24          6           0       10.894115    1.914567   -0.674226
     25          6           0        7.216356    1.600864    0.175044
     26          6           0        6.593048    2.765522    0.519667
     27          9           0        7.254721    3.862157    0.900449
     28          6           0        5.177635    2.731311    0.469943
     29          6           0        4.717575    1.504198    0.079014
     30         16           0        6.022592    0.419023   -0.232032
     31          6           0        3.316904    1.074502   -0.078877
     32          6           0        2.351343    1.996637   -0.473049
     33          6           0        1.041760    1.568484   -0.605675
     34          9           0        0.121408    2.465802   -0.991613
     35          6           0        0.630346    0.261289   -0.375014
     36          6           0        1.622264   -0.655600    0.029610
     37          8           0        1.189396   -1.907681    0.277900
     38          6           0        2.139762   -2.888121    0.635557
     39          6           0        2.947287   -0.251123    0.172371
     40          6           0       -0.769970   -0.152164   -0.547403
     41          6           0       -1.253478   -1.195739   -1.282927
     42          9           0       -0.474061   -1.994948   -2.017793
     43          6           0       -2.658806   -1.367593   -1.235674
     44          6           0       -3.254673   -0.424787   -0.443568
     45         16           0       -2.086884    0.646905    0.236422
     46          6           0       -4.690596   -0.263997   -0.153976
     47          6           0       -5.239377    0.997153    0.054731
     48          6           0       -6.595503    1.098957    0.319433
     49          9           0       -7.109103    2.323566    0.491659
     50          6           0       -7.448232    0.003371    0.394962
     51          6           0       -6.872599   -1.263782    0.169316
     52          8           0       -7.729244   -2.306059    0.240400
     53          6           0       -7.226830   -3.607009    0.023046
     54          6           0       -5.513233   -1.395088   -0.095365
     55          6           0       -8.874741    0.181986    0.700990
     56          6           0       -9.418394    0.938385    1.700145
     57          9           0       -8.681068    1.584088    2.608947
     58          6           0      -10.833904    0.980411    1.726327
     59          6           0      -11.375994    0.231550    0.718377
     60         16           0      -10.149296   -0.507299   -0.242858
     61          6           0      -12.803600    0.015138    0.423072
     62          6           0      -13.249769   -1.195517   -0.096694
     63          6           0      -14.602579   -1.354255   -0.351233
     64          9           0      -15.014568   -2.536315   -0.827472
     65          6           0      -15.549441   -0.363105   -0.120688
     66          6           0      -15.075987    0.852570    0.413565
     67          8           0      -16.021471    1.792498    0.632179
     68          6           0      -15.622667    3.037398    1.164058
     69          6           0      -13.722665    1.039904    0.676711
     70          6           0      -16.968133   -0.592737   -0.432534
     71          6           0      -17.486440   -1.098190   -1.590790
     72          9           0      -16.733590   -1.404029   -2.652642
     73          6           0      -18.895616   -1.270055   -1.599202
     74          6           0      -19.436537   -0.881844   -0.411496
     75         16           0      -18.254999   -0.310320    0.688632
     76          1           0       19.456257   -3.672606   -0.295236
     77          1           0       19.131661   -1.847727   -1.992096
     78          1           0       14.790344   -3.450920    3.381252
     79          1           0       16.581555   -3.401540    3.345882
     80          1           0       15.687842   -4.540322    2.275945
     81          1           0       17.789218   -4.023942    1.484802
     82          1           0       13.740561    2.587188   -0.131239
     83          1           0       10.974114   -0.873547    1.301220
     84          1           0       10.275753    3.586112   -2.830923
     85          1           0        9.060628    4.839354   -2.425633
     86          1           0       10.471656    4.590475   -1.349123
     87          1           0       11.555577    2.543132   -1.268535
     88          1           0        4.546260    3.573666    0.749880
     89          1           0        2.598511    3.031821   -0.708165
     90          1           0        1.578528   -3.822679    0.754273
     91          1           0        2.637947   -2.642313    1.588408
     92          1           0        2.899906   -3.019731   -0.152377
     93          1           0        3.704740   -0.957290    0.511452
     94          1           0       -3.188516   -2.133579   -1.800700
     95          1           0       -4.644106    1.908775   -0.010970
     96          1           0       -8.086186   -4.281850    0.116262
     97          1           0       -6.792863   -3.710082   -0.985711
     98          1           0       -6.469790   -3.878974    0.777486
     99          1           0       -5.068036   -2.379781   -0.229367
    100          1           0      -11.404390    1.512655    2.486358
    101          1           0      -12.575021   -2.031692   -0.283986
    102          1           0      -16.539715    3.630386    1.264212
    103          1           0      -14.925289    3.560856    0.488828
    104          1           0      -15.155029    2.922997    2.156485
    105          1           0      -13.358411    1.994611    1.053169
    106          1           0      -19.452778   -1.656696   -2.451365
    107          1           0      -20.487372   -0.889184   -0.126006
 ---------------------------------------------------------------------

 Alpha  occ. eigenvalues --  -10.19903 -10.19796 -10.19654 -10.19503 -10.19460
 Alpha  occ. eigenvalues --  -10.18770 -10.18689 -10.18683 -10.18596 -10.18521
 Alpha  occ. eigenvalues --  -10.18436 -10.18434 -10.18273 -10.18229 -10.18160
 Alpha  occ. eigenvalues --  -10.16631 -10.16610 -10.16441 -10.16432 -10.16335
 Alpha  occ. eigenvalues --  -10.15059 -10.14995 -10.14989 -10.14851 -10.14319
 Alpha  occ. eigenvalues --  -10.14256 -10.14245 -10.14160 -10.14155 -10.14141
 Alpha  occ. eigenvalues --  -10.14051 -10.13986 -10.13615 -10.13612 -10.13048
 Alpha  occ. eigenvalues --  -10.12952 -10.12920 -10.12859 -10.12695 -10.12427
 Alpha  occ. eigenvalues --  -10.11574 -10.11546 -10.11545 -10.11378 -10.11376
 Alpha  occ. eigenvalues --  -10.11315 -10.11310 -10.11261 -10.11167 -10.11157
 Alpha  occ. eigenvalues --  -10.11137 -10.11048 -10.10996 -10.10915 -10.10868
 Alpha  occ. eigenvalues --   -7.91606  -7.91469  -7.91457  -7.91307  -7.90948
 Alpha  occ. eigenvalues --   -5.93264  -5.93127  -5.93117  -5.92968  -5.92745
 Alpha  occ. eigenvalues --   -5.92605  -5.92600  -5.92595  -5.92445  -5.92294
 Alpha  occ. eigenvalues --   -5.92158  -5.92146  -5.92076  -5.91996  -5.91651
 Alpha  occ. eigenvalues --   -1.33758  -1.33624  -1.33503  -1.33448  -1.33277
 Alpha  occ. eigenvalues --   -1.33123  -1.33055  -1.32878  -1.32831  -1.32470
 Alpha  occ. eigenvalues --   -1.20742  -1.20652  -1.20652  -1.20561  -1.20537
 Alpha  occ. eigenvalues --   -1.04571  -1.04400  -1.04252  -1.04123  -1.03160
 Alpha  occ. eigenvalues --   -1.01615  -1.01245  -1.00785  -1.00365  -1.00168
 Alpha  occ. eigenvalues --   -0.95216  -0.94504  -0.93559  -0.92577  -0.91857
 Alpha  occ. eigenvalues --   -0.89695  -0.89615  -0.89513  -0.89390  -0.89235
 Alpha  occ. eigenvalues --   -0.88416  -0.87843  -0.87589  -0.87400  -0.87315
 Alpha  occ. eigenvalues --   -0.86829  -0.86502  -0.85885  -0.85361  -0.85056
 Alpha  occ. eigenvalues --   -0.84362  -0.84128  -0.83876  -0.82910  -0.82120
 Alpha  occ. eigenvalues --   -0.78892  -0.77726  -0.76616  -0.75811  -0.75294
 Alpha  occ. eigenvalues --   -0.74228  -0.73952  -0.73902  -0.73780  -0.73503
 Alpha  occ. eigenvalues --   -0.70771  -0.70559  -0.70355  -0.70177  -0.70035
 Alpha  occ. eigenvalues --   -0.69919  -0.69740  -0.69645  -0.69427  -0.69225
 Alpha  occ. eigenvalues --   -0.68137  -0.67853  -0.67407  -0.66783  -0.66156
 Alpha  occ. eigenvalues --   -0.65690  -0.64847  -0.64604  -0.64422  -0.64284
 Alpha  occ. eigenvalues --   -0.64229  -0.64057  -0.63750  -0.63489  -0.63464
 Alpha  occ. eigenvalues --   -0.61861  -0.61791  -0.61604  -0.61517  -0.61106
 Alpha  occ. eigenvalues --   -0.60747  -0.60727  -0.60650  -0.60628  -0.60560
 Alpha  occ. eigenvalues --   -0.60164  -0.59896  -0.59624  -0.59354  -0.59152
 Alpha  occ. eigenvalues --   -0.59092  -0.58924  -0.58834  -0.58783  -0.58686
 Alpha  occ. eigenvalues --   -0.58494  -0.58386  -0.58208  -0.58168  -0.58045
 Alpha  occ. eigenvalues --   -0.57086  -0.56942  -0.56859  -0.56713  -0.56619
 Alpha  occ. eigenvalues --   -0.56263  -0.56077  -0.56012  -0.55809  -0.55744
 Alpha  occ. eigenvalues --   -0.55530  -0.55268  -0.54794  -0.54311  -0.53592
 Alpha  occ. eigenvalues --   -0.53212  -0.52406  -0.52212  -0.52133  -0.52017
 Alpha  occ. eigenvalues --   -0.51838  -0.51613  -0.51362  -0.51324  -0.51048
 Alpha  occ. eigenvalues --   -0.50914  -0.50702  -0.50634  -0.50328  -0.50215
 Alpha  occ. eigenvalues --   -0.50108  -0.49726  -0.49382  -0.49151  -0.49090
 Alpha  occ. eigenvalues --   -0.48838  -0.48809  -0.48642  -0.48346  -0.48224
 Alpha  occ. eigenvalues --   -0.47791  -0.47733  -0.47418  -0.47361  -0.47211
 Alpha  occ. eigenvalues --   -0.47148  -0.45734  -0.45696  -0.45591  -0.45501
 Alpha  occ. eigenvalues --   -0.45417  -0.45139  -0.45073  -0.45005  -0.44895
 Alpha  occ. eigenvalues --   -0.44697  -0.44335  -0.44312  -0.44238  -0.43925
 Alpha  occ. eigenvalues --   -0.43782  -0.39507  -0.39047  -0.38240  -0.37260
 Alpha  occ. eigenvalues --   -0.36228  -0.35320  -0.35143  -0.34976  -0.34904
 Alpha  occ. eigenvalues --   -0.34531  -0.33824  -0.33774  -0.33759  -0.33645
 Alpha  occ. eigenvalues --   -0.33622  -0.33106  -0.32166  -0.30927  -0.29793
 Alpha  occ. eigenvalues --   -0.29006
 Alpha virt. eigenvalues --   -0.00009   0.00915   0.02259   0.03676   0.05851
 Alpha virt. eigenvalues --    0.06735   0.07439   0.07692   0.07850   0.07992
 Alpha virt. eigenvalues --    0.08256   0.08603   0.09527   0.10334   0.10884

  Beta  occ. eigenvalues --  -88.30933 -88.30797 -88.30795 -88.30650 -88.30275
  Beta  occ. eigenvalues --  -24.49106 -24.48952 -24.48601 -24.48557 -24.48541
  Beta  occ. eigenvalues --  -24.48500 -24.48490 -24.48423 -24.48398 -24.48017
  Beta  occ. eigenvalues --  -19.01044 -19.00971 -19.00850 -19.00831 -19.00766
  Beta  occ. eigenvalues --  -10.19903 -10.19796 -10.19654 -10.19503 -10.19460
  Beta  occ. eigenvalues --  -10.18770 -10.18689 -10.18683 -10.18596 -10.18521
  Beta  occ. eigenvalues --  -10.18436 -10.18434 -10.18273 -10.18229 -10.18160
  Beta  occ. eigenvalues --  -10.16631 -10.16610 -10.16441 -10.16432 -10.16335
  Beta  occ. eigenvalues --  -10.15059 -10.14995 -10.14989 -10.14851 -10.14319
  Beta  occ. eigenvalues --  -10.14256 -10.14245 -10.14160 -10.14155 -10.14141
  Beta  occ. eigenvalues --  -10.14051 -10.13986 -10.13615 -10.13612 -10.13048
  Beta  occ. eigenvalues --  -10.12952 -10.12920 -10.12859 -10.12695 -10.12427
  Beta  occ. eigenvalues --  -10.11574 -10.11546 -10.11545 -10.11378 -10.11376
  Beta  occ. eigenvalues --  -10.11315 -10.11310 -10.11261 -10.11167 -10.11157
  Beta  occ. eigenvalues --  -10.11137 -10.11048 -10.10996 -10.10915 -10.10868
  Beta  occ. eigenvalues --   -7.91606  -7.91469  -7.91457  -7.91307  -7.90948
  Beta  occ. eigenvalues --   -5.93264  -5.93127  -5.93117  -5.92968  -5.92745
  Beta  occ. eigenvalues --   -5.92605  -5.92600  -5.92595  -5.92445  -5.92294
  Beta  occ. eigenvalues --   -5.92158  -5.92146  -5.92076  -5.91996  -5.91651
  Beta  occ. eigenvalues --   -1.33758  -1.33624  -1.33503  -1.33448  -1.33277
  Beta  occ. eigenvalues --   -1.33123  -1.33055  -1.32878  -1.32831  -1.32470
  Beta  occ. eigenvalues --   -1.20742  -1.20652  -1.20652  -1.20561  -1.20537
  Beta  occ. eigenvalues --   -1.04571  -1.04400  -1.04252  -1.04123  -1.03160
  Beta  occ. eigenvalues --   -1.01615  -1.01245  -1.00785  -1.00365  -1.00168
  Beta  occ. eigenvalues --   -0.95216  -0.94504  -0.93559  -0.92577  -0.91857
  Beta  occ. eigenvalues --   -0.89695  -0.89615  -0.89513  -0.89390  -0.89235
  Beta  occ. eigenvalues --   -0.88416  -0.87843  -0.87589  -0.87400  -0.87315
  Beta  occ. eigenvalues --   -0.86829  -0.86502  -0.85885  -0.85361  -0.85056
  Beta  occ. eigenvalues --   -0.84362  -0.84128  -0.83876  -0.82910  -0.82120
  Beta  occ. eigenvalues --   -0.78892  -0.77726  -0.76616  -0.75811  -0.75294
  Beta  occ. eigenvalues --   -0.74228  -0.73952  -0.73902  -0.73780  -0.73503
  Beta  occ. eigenvalues --   -0.70771  -0.70559  -0.70355  -0.70177  -0.70035
  Beta  occ. eigenvalues --   -0.69919  -0.69740  -0.69645  -0.69427  -0.69225
  Beta  occ. eigenvalues --   -0.68137  -0.67853  -0.67407  -0.66783  -0.66156
  Beta  occ. eigenvalues --   -0.65690  -0.64847  -0.64604  -0.64422  -0.64284
  Beta  occ. eigenvalues --   -0.64229  -0.64057  -0.63750  -0.63489  -0.63464
  Beta  occ. eigenvalues --   -0.61861  -0.61791  -0.61604  -0.61517  -0.61106
  Beta  occ. eigenvalues --   -0.60747  -0.60727  -0.60650  -0.60628  -0.60560
  Beta  occ. eigenvalues --   -0.60164  -0.59896  -0.59624  -0.59354  -0.59152
  Beta  occ. eigenvalues --   -0.59092  -0.58924  -0.58834  -0.58783  -0.58686
  Beta  occ. eigenvalues --   -0.58494  -0.58386  -0.58208  -0.58168  -0.58045
  Beta  occ. eigenvalues --   -0.57086  -0.56942  -0.56859  -0.56713  -0.56619
  Beta  occ. eigenvalues --   -0.56263  -0.56077  -0.56012  -0.55809  -0.55744
  Beta  occ. eigenvalues --   -0.55530  -0.55268  -0.54794  -0.54311  -0.53592
  Beta  occ. eigenvalues --   -0.53212  -0.52406  -0.52212  -0.52133  -0.52017
  Beta  occ. eigenvalues --   -0.51838  -0.51613  -0.51362  -0.51324  -0.51048
  Beta  occ. eigenvalues --   -0.50914  -0.50702  -0.50634  -0.50328  -0.50215
  Beta  occ. eigenvalues --   -0.50108  -0.49726  -0.49382  -0.49151  -0.49090
  Beta  occ. eigenvalues --   -0.48838  -0.48809  -0.48642  -0.48346  -0.48224
  Beta  occ. eigenvalues --   -0.47791  -0.47733  -0.47418  -0.47361  -0.47211
  Beta  occ. eigenvalues --   -0.47148  -0.45734  -0.45696  -0.45591  -0.45501
  Beta  occ. eigenvalues --   -0.45417  -0.45139  -0.45073  -0.45005  -0.44895
  Beta  occ. eigenvalues --   -0.44697  -0.44335  -0.44312  -0.44238  -0.43925
  Beta  occ. eigenvalues --   -0.43782  -0.39507  -0.39047  -0.38240  -0.37260
  Beta  occ. eigenvalues --   -0.36228  -0.35320  -0.35143  -0.34976  -0.34904
  Beta  occ. eigenvalues --   -0.34531  -0.33824  -0.33774  -0.33759  -0.33645
  Beta  occ. eigenvalues --   -0.33622  -0.33106  -0.32166  -0.30927  -0.29793
  Beta  occ. eigenvalues --   -0.29006
  Beta virt. eigenvalues --   -0.00009   0.00915   0.02259   0.03676   0.05851
  Beta virt. eigenvalues --    0.06735   0.07439   0.07692   0.07850   0.07992
  Beta virt. eigenvalues --    0.08256   0.08603   0.09527   0.10334   0.10884

 Mulliken charges and spin densities:
               1          2
     1  C    0.027670   0.000000
     2  C   -0.012540  -0.000000
     3  C    0.119682   0.000000
     4  F   -0.117555  -0.000000
     5  C   -0.064735  -0.000000
     6  C    0.126066   0.000000
     7  O   -0.241588  -0.000000
     8  C    0.045870   0.000000
     9  C   -0.054817  -0.000000
    10  C   -0.174759  -0.000000
    11  C    0.153573   0.000000
    12  F   -0.117517  -0.000000
    13  C    0.009669  -0.000000
    14  C   -0.155775   0.000000
    15  S    0.202981  -0.000000
    16  C    0.055715   0.000000
    17  C   -0.020725  -0.000000
    18  C    0.129264  -0.000000
    19  F   -0.118950  -0.000000
    20  C   -0.059782  -0.000000
    21  C    0.137158   0.000000
    22  O   -0.235691  -0.000000
    23  C    0.047864  -0.000000
    24  C   -0.054474   0.000000
    25  C   -0.183340  -0.000000
    26  C    0.162700   0.000000
    27  F   -0.117657  -0.000000
    28  C    0.012751  -0.000000
    29  C   -0.157013   0.000000
    30  S    0.195528   0.000000
    31  C    0.062128  -0.000000
    32  C   -0.024892   0.000000
    33  C    0.134211  -0.000000
    34  F   -0.117125  -0.000000
    35  C   -0.060950   0.000000
    36  C    0.133434   0.000000
    37  O   -0.236432  -0.000000
    38  C    0.046659  -0.000000
    39  C   -0.056487  -0.000000
    40  C   -0.184432  -0.000000
    41  C    0.162200   0.000000
    42  F   -0.118357   0.000000
    43  C    0.008775   0.000000
    44  C   -0.155307  -0.000000
    45  S    0.205166  -0.000000
    46  C    0.054954   0.000000
    47  C   -0.019419  -0.000000
    48  C    0.125335  -0.000000
    49  F   -0.114118  -0.000000
    50  C   -0.053320   0.000000
    51  C    0.136671  -0.000000
    52  O   -0.241910   0.000000
    53  C    0.047917   0.000000
    54  C   -0.053245  -0.000000
    55  C   -0.179129   0.000000
    56  C    0.150964  -0.000000
    57  F   -0.117131   0.000000
    58  C    0.010645   0.000000
    59  C   -0.154694  -0.000000
    60  S    0.205363   0.000000
    61  C    0.053396   0.000000
    62  C   -0.020390   0.000000
    63  C    0.127276   0.000000
    64  F   -0.114948   0.000000
    65  C   -0.048575  -0.000000
    66  C    0.137275   0.000000
    67  O   -0.240799   0.000000
    68  C    0.047963   0.000000
    69  C   -0.054170   0.000000
    70  C   -0.184575   0.000000
    71  C    0.134823  -0.000000
    72  F   -0.120215   0.000000
    73  C    0.030105   0.000000
    74  C   -0.134688   0.000000
    75  S    0.187673   0.000000
    76  H    0.010861   0.000000
    77  H    0.013945   0.000000
    78  H    0.064888   0.000000
    79  H    0.053391  -0.000000
    80  H    0.052181   0.000000
    81  H    0.005380  -0.000000
    82  H    0.013138  -0.000000
    83  H    0.012472   0.000000
    84  H    0.054570  -0.000000
    85  H    0.065169   0.000000
    86  H    0.052397  -0.000000
    87  H    0.001199   0.000000
    88  H    0.016169  -0.000000
    89  H    0.006968  -0.000000
    90  H    0.063224   0.000000
    91  H    0.054954  -0.000000
    92  H    0.055404  -0.000000
    93  H    0.009458   0.000000
    94  H    0.012199  -0.000000
    95  H    0.016258   0.000000
    96  H    0.065705  -0.000000
    97  H    0.051753   0.000000
    98  H    0.055634   0.000000
    99  H   -0.000899   0.000000
   100  H    0.012270   0.000000
   101  H    0.012200  -0.000000
   102  H    0.064855  -0.000000
   103  H    0.056237  -0.000000
   104  H    0.051003  -0.000000
   105  H    0.000012   0.000000
   106  H    0.017479  -0.000000
   107  H    0.042328   0.000000
 Sum of Mulliken charges =  -0.00000   0.00000

 Dipole moment (field-independent basis, Debye):
    X=              3.2973    Y=             -2.9907    Z=              2.0526  Tot=              4.9020
 Quadrupole moment (field-independent basis, Debye-Ang):
   XX=           -370.2101   YY=           -404.1012   ZZ=           -450.9907
   XY=            -52.4407   XZ=             -2.1799   YZ=            -12.0578

 Normal termination of Gaussian 16 at Fri Jul 24 09:54:34 2020.
