 Gaussian 16, Revision A.03,
 Gaussian 16:  EM64L-G16RevA.03 25-Dec-2016

 ---------------------------------------------------------------
 #P uLC-wPBE/cc-pVDZ iop(3/107=0163300000, 3/108=0163300000) opt
 ---------------------------------------------------------------

 -----------------
 H23 C56 S7 N14 F7
 -----------------
 Symbolic Z-matrix:
 Charge =  0 Multiplicity = 1

 SCF Done:  E(ULC-wPBE) =  -6396.43854798     A.U. after   18 cycles
 SCF Done:  E(ULC-wPBE) =  -6396.53124920     A.U. after   13 cycles
 SCF Done:  E(ULC-wPBE) =  -6396.62034984     A.U. after   14 cycles
 SCF Done:  E(ULC-wPBE) =  -6396.64409507     A.U. after   14 cycles
 SCF Done:  E(ULC-wPBE) =  -6396.65079319     A.U. after   14 cycles
 SCF Done:  E(ULC-wPBE) =  -6396.65365388     A.U. after   14 cycles
 SCF Done:  E(ULC-wPBE) =  -6396.65590052     A.U. after   14 cycles
 SCF Done:  E(ULC-wPBE) =  -6396.65736736     A.U. after   14 cycles
 SCF Done:  E(ULC-wPBE) =  -6396.65791742     A.U. after   14 cycles
 SCF Done:  E(ULC-wPBE) =  -6396.65839408     A.U. after   13 cycles
 SCF Done:  E(ULC-wPBE) =  -6396.65847739     A.U. after   11 cycles
 SCF Done:  E(ULC-wPBE) =  -6396.65847832     A.U. after   10 cycles
 SCF Done:  E(ULC-wPBE) =  -6396.65847915     A.U. after    9 cycles
 SCF Done:  E(ULC-wPBE) =  -6396.65847940     A.U. after    8 cycles
 SCF Done:  E(ULC-wPBE) =  -6396.65847953     A.U. after    9 cycles
 SCF Done:  E(ULC-wPBE) =  -6396.65847966     A.U. after    8 cycles
 SCF Done:  E(ULC-wPBE) =  -6396.65847983     A.U. after    9 cycles
 SCF Done:  E(ULC-wPBE) =  -6396.65847990     A.U. after    6 cycles
 SCF Done:  E(ULC-wPBE) =  -6396.65848009     A.U. after    7 cycles
 SCF Done:  E(ULC-wPBE) =  -6396.65848013     A.U. after    6 cycles
 Optimization completed.
    -- Stationary point found.

                         Standard orientation:
 ---------------------------------------------------------------------
 Center     Atomic      Atomic             Coordinates (Angstroms)
 Number     Number       Type             X           Y           Z
 ---------------------------------------------------------------------
      1          6           0      -25.892843   -4.453061    1.317331
      2          6           0      -24.697635   -4.318682    2.038331
      3          7           0      -23.575067   -3.817253    1.511726
      4          6           0      -23.577978   -3.415869    0.223315
      5          6           0      -24.741176   -3.518591   -0.566052
      6          9           0      -24.746169   -3.118863   -1.847844
      7          6           0      -25.912093   -4.042048   -0.017446
      8          6           0      -22.302213   -2.876456   -0.272501
      9          7           0      -22.050159   -2.428186   -1.482898
     10          6           0      -20.753691   -2.005202   -1.572403
     11          6           0      -19.979254   -2.119678   -0.427647
     12         16           0      -20.948551   -2.806073    0.850193
     13          6           0      -18.569646   -1.754248   -0.248069
     14          6           0      -17.754153   -2.352771    0.741756
     15          7           0      -16.469012   -2.065885    0.943402
     16          6           0      -15.871580   -1.147216    0.156072
     17          6           0      -16.609841   -0.508569   -0.857738
     18          9           0      -16.016438    0.420366   -1.649149
     19          6           0      -17.953081   -0.792155   -1.066880
     20          6           0      -14.445497   -0.867828    0.426122
     21          7           0      -13.772705   -1.467090    1.387757
     22          6           0      -12.481422   -1.033432    1.420071
     23          6           0      -12.112602   -0.081501    0.481539
     24         16           0      -13.496593    0.287517   -0.509120
     25          6           0      -10.806885    0.559936    0.294960
     26          6           0      -10.666215    1.823109   -0.327602
     27          7           0       -9.507792    2.453054   -0.515886
     28          6           0       -8.368764    1.872850   -0.083795
     29          6           0       -8.420788    0.618751    0.552979
     30          9           0       -7.278532    0.027502    0.985162
     31          6           0       -9.622316   -0.051229    0.741899
     32          6           0       -7.113455    2.616073   -0.321007
     33          7           0       -7.082139    3.784511   -0.929169
     34          6           0       -5.805529    4.253027   -1.016502
     35          6           0       -4.804864    3.459045   -0.476984
     36         16           0       -5.532258    2.022837    0.187159
     37          6           0       -3.359733    3.709535   -0.439592
     38          6           0       -2.416731    2.660900   -0.339483
     39          7           0       -1.097098    2.844248   -0.311579
     40          6           0       -0.598373    4.095619   -0.390606
     41          6           0       -1.464924    5.202204   -0.498015
     42          9           0       -0.984231    6.453452   -0.569576
     43          6           0       -2.843790    5.015831   -0.515242
     44          6           0        0.865919    4.202160   -0.351371
     45          7           0        1.578757    5.305936   -0.418344
     46          6           0        2.911900    5.015060   -0.349681
     47          6           0        3.253924    3.676361   -0.227530
     48         16           0        1.797535    2.716651   -0.195949
     49          6           0        4.595501    3.088511   -0.143342
     50          6           0        4.859578    1.751009   -0.523106
     51          7           0        6.057101    1.169512   -0.475151
     52          6           0        7.116629    1.885855   -0.045055
     53          6           0        6.941926    3.226554    0.345911
     54          9           0        8.002207    3.950993    0.785131
     55          6           0        5.695246    3.837140    0.311083
     56          6           0        8.419628    1.188989   -0.011083
     57          7           0        8.563081   -0.070405   -0.369886
     58          6           0        9.861629   -0.466727   -0.248611
     59          6           0       10.767360    0.478330    0.209082
     60         16           0        9.915805    1.968301    0.504228
     61          6           0       12.209443    0.327722    0.435118
     62          6           0       12.960998   -0.623310   -0.293902
     63          7           0       14.266322   -0.829848   -0.122439
     64          6           0       14.944353   -0.092202    0.782325
     65          6           0       14.279388    0.892930    1.539476
     66          9           0       14.940018    1.639412    2.438284
     67          6           0       12.913312    1.102385    1.373584
     68          6           0       16.377782   -0.388571    0.902138
     69          7           0       17.237246    0.186620    1.714727
     70          6           0       18.483662   -0.348876    1.546563
     71          6           0       18.609128   -1.350428    0.595330
     72         16           0       17.053202   -1.638161   -0.138486
     73          6           0       19.817188   -2.092973    0.214906
     74          6           0       21.099382   -1.514791    0.357258
     75          7           0       22.236984   -2.140585    0.054833
     76          6           0       22.196221   -3.398140   -0.433847
     77          6           0       20.958783   -4.044794   -0.627790
     78          9           0       20.897793   -5.292866   -1.119073
     79          6           0       19.769501   -3.399806   -0.300975
     80          6           0       23.496768   -4.011705   -0.738103
     81          7           0       23.703731   -5.219122   -1.214659
     82          6           0       25.047789   -5.446540   -1.370757
     83          6           0       25.880224   -4.408875   -1.012680
     84         16           0       24.955255   -3.064265   -0.446790
     85          1           0      -26.790128   -4.871278    1.791771
     86          1           0      -24.638669   -4.629980    3.092501
     87          1           0      -26.809403   -4.115737   -0.645381
     88          1           0      -20.385118   -1.625784   -2.534035
     89          1           0      -18.180409   -3.122608    1.405600
     90          1           0      -18.497319   -0.247507   -1.848402
     91          1           0      -11.808766   -1.432155    2.190301
     92          1           0      -11.561732    2.356106   -0.687062
     93          1           0       -9.611894   -1.040727    1.215534
     94          1           0       -5.626430    5.209948   -1.523272
     95          1           0       -2.758267    1.614829   -0.288995
     96          1           0       -3.493734    5.898254   -0.569417
     97          1           0        3.637628    5.835434   -0.418861
     98          1           0        4.037956    1.119364   -0.898692
     99          1           0        5.600328    4.874737    0.654575
    100          1           0       10.123991   -1.504889   -0.488527
    101          1           0       12.473911   -1.236369   -1.067173
    102          1           0       12.416734    1.860749    1.993422
    103          1           0       19.306497    0.010657    2.177098
    104          1           0       21.200899   -0.481421    0.722345
    105          1           0       18.821626   -3.936138   -0.441877
    106          1           0       25.385564   -6.414360   -1.761547
    107          1           0       26.973359   -4.370241   -1.053634
 ---------------------------------------------------------------------

 Alpha  occ. eigenvalues --   -0.84108  -0.83885  -0.83764  -0.83618  -0.83210
 Alpha  occ. eigenvalues --   -0.82822  -0.82750  -0.82698  -0.82628  -0.82348
 Alpha  occ. eigenvalues --   -0.82099  -0.82024  -0.81784  -0.81333  -0.79117
 Alpha  occ. eigenvalues --   -0.78620  -0.77930  -0.77140  -0.76438  -0.75791
 Alpha  occ. eigenvalues --   -0.74927  -0.72295  -0.71808  -0.71037  -0.70714
 Alpha  occ. eigenvalues --   -0.70269  -0.70146  -0.69541  -0.69247  -0.68962
 Alpha  occ. eigenvalues --   -0.68772  -0.68691  -0.68401  -0.68203  -0.68014
 Alpha  occ. eigenvalues --   -0.64174  -0.63972  -0.63746  -0.63526  -0.63426
 Alpha  occ. eigenvalues --   -0.62929  -0.62754  -0.62618  -0.62272  -0.62034
 Alpha  occ. eigenvalues --   -0.61956  -0.61756  -0.61404  -0.61146  -0.59506
 Alpha  occ. eigenvalues --   -0.59202  -0.59023  -0.58629  -0.58272  -0.58116
 Alpha  occ. eigenvalues --   -0.57780  -0.57320  -0.57159  -0.56941  -0.56892
 Alpha  occ. eigenvalues --   -0.56616  -0.56492  -0.56229  -0.55726  -0.55390
 Alpha  occ. eigenvalues --   -0.55137  -0.54889  -0.54822  -0.54472  -0.53872
 Alpha  occ. eigenvalues --   -0.53764  -0.53209  -0.52959  -0.52847  -0.52769
 Alpha  occ. eigenvalues --   -0.52670  -0.52347  -0.52172  -0.52068  -0.51871
 Alpha  occ. eigenvalues --   -0.51422  -0.51248  -0.50842  -0.50461  -0.49306
 Alpha  occ. eigenvalues --   -0.48821  -0.48691  -0.48620  -0.48513  -0.48468
 Alpha  occ. eigenvalues --   -0.48438  -0.48336  -0.48303  -0.48253  -0.48214
 Alpha  occ. eigenvalues --   -0.48109  -0.48088  -0.47761  -0.47694  -0.47647
 Alpha  occ. eigenvalues --   -0.47108  -0.46916  -0.46798  -0.46668  -0.46510
 Alpha  occ. eigenvalues --   -0.46434  -0.46267  -0.46119  -0.45966  -0.45950
 Alpha  occ. eigenvalues --   -0.45853  -0.45844  -0.45747  -0.45580  -0.45429
 Alpha  occ. eigenvalues --   -0.45269  -0.44962  -0.44722  -0.44634  -0.44205
 Alpha  occ. eigenvalues --   -0.44169  -0.43921  -0.43839  -0.43223  -0.42944
 Alpha  occ. eigenvalues --   -0.42621  -0.42351  -0.41794  -0.41722  -0.41466
 Alpha  occ. eigenvalues --   -0.41310  -0.41225  -0.41075  -0.40720  -0.39941
 Alpha  occ. eigenvalues --   -0.39596  -0.39038  -0.38332  -0.37662  -0.37141
 Alpha  occ. eigenvalues --   -0.36465  -0.34922  -0.34836  -0.34788  -0.34699
 Alpha  occ. eigenvalues --   -0.34399  -0.34292  -0.34179  -0.34073  -0.34022
 Alpha  occ. eigenvalues --   -0.33972  -0.33915  -0.33801  -0.33670  -0.33376
 Alpha  occ. eigenvalues --   -0.33240  -0.33009  -0.32916  -0.32784  -0.32718
 Alpha  occ. eigenvalues --   -0.32634  -0.32338  -0.32196  -0.32066  -0.31912
 Alpha  occ. eigenvalues --   -0.31669  -0.31542  -0.31241  -0.31173  -0.31155
 Alpha  occ. eigenvalues --   -0.30616  -0.29599  -0.28642  -0.27646  -0.26867
 Alpha  occ. eigenvalues --   -0.26326
 Alpha virt. eigenvalues --   -0.06519  -0.05819  -0.04938  -0.03905  -0.02852
 Alpha virt. eigenvalues --   -0.01888  -0.01330   0.00113   0.00219   0.00283
 Alpha virt. eigenvalues --    0.00415   0.00556   0.00828   0.01062   0.01643

  Beta  occ. eigenvalues --  -88.21605 -88.21559 -88.21413 -88.21120 -88.21110
  Beta  occ. eigenvalues --  -88.20703 -88.19753 -24.41183 -24.41112 -24.41035
  Beta  occ. eigenvalues --  -24.39859 -24.39750 -24.39584 -24.38919 -14.11938
  Beta  occ. eigenvalues --  -14.11691 -14.11658 -14.11286 -14.11199 -14.11102
  Beta  occ. eigenvalues --  -14.10974 -14.10730 -14.10713 -14.10573 -14.10535
  Beta  occ. eigenvalues --  -14.10369 -14.10304 -14.09306 -10.10387 -10.10309
  Beta  occ. eigenvalues --  -10.10231 -10.10222 -10.10059 -10.09951 -10.09268
  Beta  occ. eigenvalues --  -10.07317 -10.07274 -10.07134 -10.07017 -10.07006
  Beta  occ. eigenvalues --  -10.06614 -10.06375 -10.06300 -10.06246 -10.06218
  Beta  occ. eigenvalues --  -10.06215 -10.05964 -10.05538 -10.05324 -10.04925
  Beta  occ. eigenvalues --  -10.04897 -10.04887 -10.04737 -10.04726 -10.04714
  Beta  occ. eigenvalues --  -10.04713 -10.04686 -10.04657 -10.04647 -10.04594
  Beta  occ. eigenvalues --  -10.04560 -10.04536 -10.04483 -10.04458 -10.04440
  Beta  occ. eigenvalues --  -10.04278 -10.04047 -10.03856 -10.03844 -10.03783
  Beta  occ. eigenvalues --  -10.03767 -10.03746 -10.03696 -10.03616 -10.03611
  Beta  occ. eigenvalues --  -10.03541 -10.03516 -10.03417 -10.03267 -10.03226
  Beta  occ. eigenvalues --  -10.02909 -10.02661 -10.02362 -10.02121  -7.81922
  Beta  occ. eigenvalues --   -7.81875  -7.81735  -7.81412  -7.81404  -7.81004
  Beta  occ. eigenvalues --   -7.80055  -5.83943  -5.83896  -5.83755  -5.83502
  Beta  occ. eigenvalues --   -5.83454  -5.83430  -5.83422  -5.83316  -5.83163
  Beta  occ. eigenvalues --   -5.83117  -5.83019  -5.82996  -5.82988  -5.82976
  Beta  occ. eigenvalues --   -5.82661  -5.82652  -5.82589  -5.82251  -5.82058
  Beta  occ. eigenvalues --   -5.81629  -5.81326  -1.24538  -1.24465  -1.24382
  Beta  occ. eigenvalues --   -1.23651  -1.23524  -1.23377  -1.22702  -0.99955
  Beta  occ. eigenvalues --   -0.99861  -0.99782  -0.99698  -0.99661  -0.99438
  Beta  occ. eigenvalues --   -0.98545  -0.98133  -0.97914  -0.97780  -0.97752
  Beta  occ. eigenvalues --   -0.97548  -0.97481  -0.96808  -0.87851  -0.87610
  Beta  occ. eigenvalues --   -0.87504  -0.87180  -0.87143  -0.86838  -0.85087
  Beta  occ. eigenvalues --   -0.84108  -0.83885  -0.83764  -0.83618  -0.83210
  Beta  occ. eigenvalues --   -0.82822  -0.82750  -0.82698  -0.82628  -0.82348
  Beta  occ. eigenvalues --   -0.82099  -0.82024  -0.81784  -0.81333  -0.79117
  Beta  occ. eigenvalues --   -0.78620  -0.77930  -0.77140  -0.76438  -0.75791
  Beta  occ. eigenvalues --   -0.74927  -0.72295  -0.71808  -0.71037  -0.70714
  Beta  occ. eigenvalues --   -0.70269  -0.70146  -0.69541  -0.69247  -0.68962
  Beta  occ. eigenvalues --   -0.68772  -0.68691  -0.68401  -0.68203  -0.68014
  Beta  occ. eigenvalues --   -0.64174  -0.63972  -0.63746  -0.63526  -0.63426
  Beta  occ. eigenvalues --   -0.62929  -0.62754  -0.62618  -0.62272  -0.62034
  Beta  occ. eigenvalues --   -0.61956  -0.61756  -0.61404  -0.61146  -0.59506
  Beta  occ. eigenvalues --   -0.59202  -0.59023  -0.58629  -0.58272  -0.58116
  Beta  occ. eigenvalues --   -0.57780  -0.57320  -0.57159  -0.56941  -0.56892
  Beta  occ. eigenvalues --   -0.56616  -0.56492  -0.56229  -0.55726  -0.55390
  Beta  occ. eigenvalues --   -0.55137  -0.54889  -0.54822  -0.54472  -0.53872
  Beta  occ. eigenvalues --   -0.53764  -0.53209  -0.52959  -0.52847  -0.52769
  Beta  occ. eigenvalues --   -0.52670  -0.52347  -0.52172  -0.52068  -0.51871
  Beta  occ. eigenvalues --   -0.51422  -0.51248  -0.50842  -0.50461  -0.49306
  Beta  occ. eigenvalues --   -0.48821  -0.48691  -0.48620  -0.48513  -0.48468
  Beta  occ. eigenvalues --   -0.48438  -0.48336  -0.48303  -0.48253  -0.48214
  Beta  occ. eigenvalues --   -0.48109  -0.48088  -0.47761  -0.47694  -0.47647
  Beta  occ. eigenvalues --   -0.47108  -0.46916  -0.46798  -0.46668  -0.46510
  Beta  occ. eigenvalues --   -0.46434  -0.46267  -0.46119  -0.45966  -0.45950
  Beta  occ. eigenvalues --   -0.45853  -0.45844  -0.45747  -0.45580  -0.45429
  Beta  occ. eigenvalues --   -0.45269  -0.44962  -0.44722  -0.44634  -0.44205
  Beta  occ. eigenvalues --   -0.44169  -0.43921  -0.43839  -0.43223  -0.42944
  Beta  occ. eigenvalues --   -0.42621  -0.42351  -0.41794  -0.41722  -0.41466
  Beta  occ. eigenvalues --   -0.41310  -0.41225  -0.41075  -0.40720  -0.39941
  Beta  occ. eigenvalues --   -0.39596  -0.39038  -0.38332  -0.37662  -0.37141
  Beta  occ. eigenvalues --   -0.36465  -0.34922  -0.34836  -0.34788  -0.34699
  Beta  occ. eigenvalues --   -0.34399  -0.34292  -0.34179  -0.34073  -0.34022
  Beta  occ. eigenvalues --   -0.33972  -0.33915  -0.33801  -0.33670  -0.33376
  Beta  occ. eigenvalues --   -0.33240  -0.33009  -0.32916  -0.32784  -0.32718
  Beta  occ. eigenvalues --   -0.32634  -0.32338  -0.32196  -0.32066  -0.31912
  Beta  occ. eigenvalues --   -0.31669  -0.31542  -0.31241  -0.31173  -0.31155
  Beta  occ. eigenvalues --   -0.30616  -0.29599  -0.28642  -0.27646  -0.26867
  Beta  occ. eigenvalues --   -0.26326
  Beta virt. eigenvalues --   -0.06519  -0.05819  -0.04938  -0.03905  -0.02852
  Beta virt. eigenvalues --   -0.01888  -0.01330   0.00113   0.00219   0.00283
  Beta virt. eigenvalues --    0.00415   0.00556   0.00828   0.01062   0.01643

 Mulliken charges and spin densities:
               1          2
     1  C   -0.013712  -0.000000
     2  C    0.091328   0.000000
     3  N   -0.209015   0.000000
     4  C    0.066688  -0.000000
     5  C    0.127240   0.000000
     6  F   -0.093879  -0.000000
     7  C    0.066211   0.000000
     8  C   -0.007202   0.000000
     9  N   -0.171275  -0.000000
    10  C    0.117524   0.000000
    11  C   -0.213329   0.000000
    12  S    0.192488   0.000000
    13  C    0.013686  -0.000000
    14  C    0.082133   0.000000
    15  N   -0.161135   0.000000
    16  C    0.052339   0.000000
    17  C    0.109236   0.000000
    18  F   -0.118680  -0.000000
    19  C    0.070198  -0.000000
    20  C   -0.006246  -0.000000
    21  N   -0.144333   0.000000
    22  C    0.128027   0.000000
    23  C   -0.210374   0.000000
    24  S    0.162692   0.000000
    25  C    0.015516  -0.000000
    26  C    0.080857   0.000000
    27  N   -0.160774  -0.000000
    28  C    0.052561   0.000000
    29  C    0.109754   0.000000
    30  F   -0.118535  -0.000000
    31  C    0.070068  -0.000000
    32  C   -0.006177   0.000000
    33  N   -0.144200  -0.000000
    34  C    0.128473   0.000000
    35  C   -0.210877  -0.000000
    36  S    0.160858  -0.000000
    37  C    0.011902   0.000000
    38  C    0.090757  -0.000000
    39  N   -0.207192   0.000000
    40  C    0.069715  -0.000000
    41  C    0.138255   0.000000
    42  F   -0.091865   0.000000
    43  C    0.059886  -0.000000
    44  C   -0.010971   0.000000
    45  N   -0.172784  -0.000000
    46  C    0.117801   0.000000
    47  C   -0.213264  -0.000000
    48  S    0.193991   0.000000
    49  C    0.013416   0.000000
    50  C    0.082108  -0.000000
    51  N   -0.160774   0.000000
    52  C    0.053046  -0.000000
    53  C    0.109010   0.000000
    54  F   -0.119339  -0.000000
    55  C    0.070130  -0.000000
    56  C   -0.006429   0.000000
    57  N   -0.144369  -0.000000
    58  C    0.129202  -0.000000
    59  C   -0.209546   0.000000
    60  S    0.157065  -0.000000
    61  C    0.005167  -0.000000
    62  C    0.091979   0.000000
    63  N   -0.207476  -0.000000
    64  C    0.069634  -0.000000
    65  C    0.135983   0.000000
    66  F   -0.091708  -0.000000
    67  C    0.064150   0.000000
    68  C   -0.011255  -0.000000
    69  N   -0.173243   0.000000
    70  C    0.118301  -0.000000
    71  C   -0.211404  -0.000000
    72  S    0.186681   0.000000
    73  C    0.002688   0.000000
    74  C    0.089130   0.000000
    75  N   -0.205870  -0.000000
    76  C    0.077773   0.000000
    77  C    0.133073  -0.000000
    78  F   -0.093071  -0.000000
    79  C    0.063907  -0.000000
    80  C   -0.032234  -0.000000
    81  N   -0.177307   0.000000
    82  C    0.115313   0.000000
    83  C   -0.163678  -0.000000
    84  S    0.186289   0.000000
    85  H    0.001349  -0.000000
    86  H    0.011296  -0.000000
    87  H    0.011061   0.000000
    88  H    0.004242  -0.000000
    89  H    0.012261  -0.000000
    90  H    0.000821  -0.000000
    91  H    0.006430   0.000000
    92  H    0.011710   0.000000
    93  H    0.001449   0.000000
    94  H    0.007566  -0.000000
    95  H    0.011264  -0.000000
    96  H    0.000700  -0.000000
    97  H    0.004442   0.000000
    98  H    0.012495   0.000000
    99  H    0.000552  -0.000000
   100  H    0.009276  -0.000000
   101  H    0.006733  -0.000000
   102  H    0.004391   0.000000
   103  H    0.006510  -0.000000
   104  H    0.004358   0.000000
   105  H    0.003612  -0.000000
   106  H    0.000925  -0.000000
   107  H    0.025849   0.000000
 Sum of Mulliken charges =  -0.00000   0.00000

 Dipole moment (field-independent basis, Debye):
    X=            -10.2799    Y=              0.1813    Z=              1.0154  Tot=             10.3316
 Quadrupole moment (field-independent basis, Debye-Ang):
   XX=           -347.5439   YY=           -509.7235   ZZ=           -517.2500
   XY=             63.6391   XZ=            -10.0789   YZ=             -2.6220

 Normal termination of Gaussian 16 at Sat Jul 25 22:09:36 2020.
