 Gaussian 16, Revision A.03,
 Gaussian 16:  EM64L-G16RevA.03 25-Dec-2016

 ---------------------------------------------------------------
 #P uLC-wPBE/cc-pVDZ iop(3/107=0366700000, 3/108=0366700000) opt
 ---------------------------------------------------------------

 -------------
 H12 C12 S1 O2
 -------------
 Symbolic Z-matrix:
 Charge =  0 Multiplicity = 1

 SCF Done:  E(ULC-wPBE) =  -1012.53465066     A.U. after   16 cycles
 SCF Done:  E(ULC-wPBE) =  -1012.56806167     A.U. after   14 cycles
 SCF Done:  E(ULC-wPBE) =  -1012.57676656     A.U. after   15 cycles
 SCF Done:  E(ULC-wPBE) =  -1012.57723455     A.U. after   13 cycles
 SCF Done:  E(ULC-wPBE) =  -1012.57755068     A.U. after   13 cycles
 SCF Done:  E(ULC-wPBE) =  -1012.57832795     A.U. after   16 cycles
 SCF Done:  E(ULC-wPBE) =  -1012.57867246     A.U. after   13 cycles
 SCF Done:  E(ULC-wPBE) =  -1012.57890706     A.U. after   13 cycles
 SCF Done:  E(ULC-wPBE) =  -1012.57893564     A.U. after   12 cycles
 SCF Done:  E(ULC-wPBE) =  -1012.57894324     A.U. after   11 cycles
 SCF Done:  E(ULC-wPBE) =  -1012.57894534     A.U. after    9 cycles
 SCF Done:  E(ULC-wPBE) =  -1012.57894685     A.U. after    9 cycles
 SCF Done:  E(ULC-wPBE) =  -1012.57894862     A.U. after    9 cycles
 SCF Done:  E(ULC-wPBE) =  -1012.57894941     A.U. after    9 cycles
 SCF Done:  E(ULC-wPBE) =  -1012.57894950     A.U. after    8 cycles
 Optimization completed.
    -- Stationary point found.

                         Standard orientation:
 ---------------------------------------------------------------------
 Center     Atomic      Atomic             Coordinates (Angstroms)
 Number     Number       Type             X           Y           Z
 ---------------------------------------------------------------------
      1          6           0        3.035283    1.885323   -0.249704
      2          6           0        1.852575    2.517230   -0.599069
      3          6           0        0.659388    1.801988   -0.573938
      4          6           0        0.613288    0.458309   -0.198848
      5          6           0        1.829818   -0.167765    0.145298
      6          8           0        1.747632   -1.479305    0.487848
      7          6           0        2.931917   -2.168010    0.812642
      8          6           0        3.026851    0.543082    0.120114
      9          6           0       -0.675468   -0.261855   -0.172398
     10          6           0       -1.920840    0.270539    0.092200
     11          8           0       -2.064699    1.576999    0.440228
     12          6           0       -3.350479    1.992837    0.840489
     13          6           0       -2.987466   -0.668428   -0.046402
     14          6           0       -2.531789   -1.896447   -0.423174
     15         16           0       -0.835688   -1.937061   -0.586786
     16          1           0        3.981944    2.430879   -0.264755
     17          1           0        1.850855    3.567670   -0.897468
     18          1           0       -0.273288    2.294901   -0.847167
     19          1           0        2.632129   -3.199205    1.037315
     20          1           0        3.423858   -1.734691    1.700231
     21          1           0        3.644423   -2.174261   -0.030018
     22          1           0        3.963604    0.055466    0.390404
     23          1           0       -4.079671    1.921890    0.014820
     24          1           0       -3.255297    3.044199    1.140144
     25          1           0       -3.718137    1.406672    1.700072
     26          1           0       -4.039261   -0.446658    0.126789
     27          1           0       -3.122100   -2.796256   -0.589657
 ---------------------------------------------------------------------

 The electronic state is 1-A.
 Alpha  occ. eigenvalues --  -88.28981 -18.99368 -18.99113 -10.15953 -10.15456
 Alpha  occ. eigenvalues --  -10.15455 -10.15431 -10.12352 -10.11914 -10.11050
 Alpha  occ. eigenvalues --  -10.10057 -10.10040 -10.09660 -10.09535 -10.08992
 Alpha  occ. eigenvalues --   -7.89623  -5.91270  -5.90737  -5.90349  -1.18961
 Alpha  occ. eigenvalues --   -1.18541  -1.01511  -0.98343  -0.90498  -0.88112
 Alpha  occ. eigenvalues --   -0.86846  -0.84693  -0.82264  -0.80161  -0.73557
 Alpha  occ. eigenvalues --   -0.71569  -0.68515  -0.66735  -0.65597  -0.62765
 Alpha  occ. eigenvalues --   -0.59839  -0.59118  -0.58778  -0.58165  -0.57091
 Alpha  occ. eigenvalues --   -0.54911  -0.54142  -0.52663  -0.51952  -0.51294
 Alpha  occ. eigenvalues --   -0.49717  -0.48884  -0.47640  -0.45958  -0.44519
 Alpha  occ. eigenvalues --   -0.43622  -0.42993  -0.42642  -0.41908  -0.37090
 Alpha  occ. eigenvalues --   -0.33014  -0.31975  -0.28307
 Alpha virt. eigenvalues --    0.04986   0.09418   0.10752   0.14839   0.15630
 Alpha virt. eigenvalues --    0.15852   0.17121   0.17794   0.18726   0.20204
 Alpha virt. eigenvalues --    0.20532   0.21863   0.22293   0.22717   0.22980

  Beta  occ. eigenvalues --  -88.28981 -18.99368 -18.99113 -10.15953 -10.15456
  Beta  occ. eigenvalues --  -10.15455 -10.15431 -10.12352 -10.11914 -10.11050
  Beta  occ. eigenvalues --  -10.10057 -10.10040 -10.09660 -10.09535 -10.08992
  Beta  occ. eigenvalues --   -7.89623  -5.91270  -5.90737  -5.90349  -1.18961
  Beta  occ. eigenvalues --   -1.18541  -1.01511  -0.98343  -0.90498  -0.88112
  Beta  occ. eigenvalues --   -0.86846  -0.84693  -0.82264  -0.80161  -0.73557
  Beta  occ. eigenvalues --   -0.71569  -0.68515  -0.66735  -0.65597  -0.62765
  Beta  occ. eigenvalues --   -0.59839  -0.59118  -0.58778  -0.58165  -0.57091
  Beta  occ. eigenvalues --   -0.54911  -0.54142  -0.52663  -0.51952  -0.51294
  Beta  occ. eigenvalues --   -0.49717  -0.48884  -0.47640  -0.45958  -0.44519
  Beta  occ. eigenvalues --   -0.43622  -0.42993  -0.42642  -0.41908  -0.37090
  Beta  occ. eigenvalues --   -0.33014  -0.31975  -0.28307
  Beta virt. eigenvalues --    0.04986   0.09418   0.10752   0.14839   0.15630
  Beta virt. eigenvalues --    0.15852   0.17121   0.17794   0.18726   0.20204
  Beta virt. eigenvalues --    0.20532   0.21863   0.22293   0.22717   0.22980

 Mulliken charges and spin densities:
               1          2
     1  C    0.010177  -0.000000
     2  C    0.008487   0.000000
     3  C    0.015400  -0.000000
     4  C   -0.003736  -0.000000
     5  C    0.109200   0.000000
     6  O   -0.255743   0.000000
     7  C    0.050639  -0.000000
     8  C   -0.048346   0.000000
     9  C   -0.190576   0.000000
    10  C    0.140808  -0.000000
    11  O   -0.257920  -0.000000
    12  C    0.047451  -0.000000
    13  C   -0.001469   0.000000
    14  C   -0.136840   0.000000
    15  S    0.180377   0.000000
    16  H   -0.003330  -0.000000
    17  H   -0.007323  -0.000000
    18  H   -0.002218  -0.000000
    19  H    0.059894   0.000000
    20  H    0.048637   0.000000
    21  H    0.048186  -0.000000
    22  H   -0.000440   0.000000
    23  H    0.045918   0.000000
    24  H    0.057350  -0.000000
    25  H    0.046901   0.000000
    26  H    0.004968  -0.000000
    27  H    0.033548  -0.000000
 Sum of Mulliken charges =  -0.00000  -0.00000

 Dipole moment (field-independent basis, Debye):
    X=             -0.4892    Y=             -0.2488    Z=              0.8117  Tot=              0.9799
 Quadrupole moment (field-independent basis, Debye-Ang):
   XX=            -72.5653   YY=            -85.2608   ZZ=            -97.3515
   XY=             -5.7857   XZ=              0.3720   YZ=             -0.7732

 Normal termination of Gaussian 16 at Fri Jul 24 15:01:45 2020.
