 Gaussian 16, Revision A.03,
 Gaussian 16:  EM64L-G16RevA.03 25-Dec-2016

 ---------------------------------------------------------------
 #P uLC-wPBE/cc-pVDZ iop(3/107=0177500000, 3/108=0177500000) opt
 ---------------------------------------------------------------

 -------------
 H10 C11 N2 O1
 -------------
 Symbolic Z-matrix:
 Charge =  0 Multiplicity = 1

 SCF Done:  E(ULC-wPBE) =  -609.332803433     A.U. after   15 cycles
 SCF Done:  E(ULC-wPBE) =  -609.362304629     A.U. after   14 cycles
 SCF Done:  E(ULC-wPBE) =  -609.367128628     A.U. after   14 cycles
 SCF Done:  E(ULC-wPBE) =  -609.367574784     A.U. after   13 cycles
 SCF Done:  E(ULC-wPBE) =  -609.367779198     A.U. after   13 cycles
 SCF Done:  E(ULC-wPBE) =  -609.367834864     A.U. after   12 cycles
 SCF Done:  E(ULC-wPBE) =  -609.367852957     A.U. after   11 cycles
 SCF Done:  E(ULC-wPBE) =  -609.367855946     A.U. after   10 cycles
 SCF Done:  E(ULC-wPBE) =  -609.367856424     A.U. after    9 cycles
 SCF Done:  E(ULC-wPBE) =  -609.367856504     A.U. after    8 cycles
 SCF Done:  E(ULC-wPBE) =  -609.367856566     A.U. after    7 cycles
 Optimization completed.
    -- Stationary point found.

                         Standard orientation:
 ---------------------------------------------------------------------
 Center     Atomic      Atomic             Coordinates (Angstroms)
 Number     Number       Type             X           Y           Z
 ---------------------------------------------------------------------
      1          6           0       -3.758673    0.102032   -0.030371
      2          6           0       -2.980686    1.000566    0.705438
      3          6           0       -1.595613    0.819984    0.738401
      4          6           0       -1.034552   -0.265257    0.040855
      5          7           0       -1.777537   -1.137430   -0.669740
      6          6           0       -3.103134   -0.940782   -0.697270
      7          6           0        0.436943   -0.561466    0.084121
      8          7           0        0.766949   -1.853019    0.229790
      9          6           0        2.065318   -2.189504    0.261404
     10          6           0        3.099963   -1.260052    0.141226
     11          6           0        2.773671    0.090902   -0.019688
     12          6           0        1.420468    0.456768   -0.047028
     13          8           0        0.974570    1.738667   -0.208093
     14          6           0        1.949390    2.753426   -0.416255
     15          1           0       -4.850549    0.203080   -0.089466
     16          1           0       -3.445942    1.833219    1.251121
     17          1           0       -0.951020    1.506059    1.299745
     18          1           0       -3.680701   -1.666407   -1.293459
     19          1           0        2.283463   -3.261380    0.388890
     20          1           0        4.150077   -1.580336    0.169641
     21          1           0        3.566281    0.840797   -0.126295
     22          1           0        2.556205    2.557686   -1.325553
     23          1           0        2.627363    2.860329    0.457289
     24          1           0        1.383817    3.691056   -0.552515
 ---------------------------------------------------------------------

 The electronic state is 1-A.
 Alpha  occ. eigenvalues --  -18.91066 -14.08878 -14.08495 -10.06693 -10.06345
 Alpha  occ. eigenvalues --  -10.03304 -10.03273 -10.02443 -10.02088 -10.01608
 Alpha  occ. eigenvalues --  -10.01361 -10.00970 -10.00453 -10.00375  -1.09250
 Alpha  occ. eigenvalues --   -0.96551  -0.94530  -0.83010  -0.82357  -0.81648
 Alpha  occ. eigenvalues --   -0.77519  -0.74222  -0.68612  -0.66381  -0.64478
 Alpha  occ. eigenvalues --   -0.63626  -0.58535  -0.56050  -0.55018  -0.52938
 Alpha  occ. eigenvalues --   -0.52421  -0.51308  -0.49731  -0.48105  -0.47329
 Alpha  occ. eigenvalues --   -0.46131  -0.45140  -0.44425  -0.43825  -0.42532
 Alpha  occ. eigenvalues --   -0.41020  -0.39025  -0.38271  -0.34760  -0.33617
 Alpha  occ. eigenvalues --   -0.31487  -0.29370  -0.28912  -0.27944
 Alpha virt. eigenvalues --    0.00690   0.03421   0.04074   0.06534   0.11120
 Alpha virt. eigenvalues --    0.12268   0.13572   0.15341   0.16661   0.16812
 Alpha virt. eigenvalues --    0.17833   0.18200   0.18680   0.19267   0.20338

  Beta  occ. eigenvalues --  -18.91066 -14.08878 -14.08495 -10.06693 -10.06345
  Beta  occ. eigenvalues --  -10.03304 -10.03273 -10.02443 -10.02088 -10.01608
  Beta  occ. eigenvalues --  -10.01361 -10.00970 -10.00453 -10.00375  -1.09250
  Beta  occ. eigenvalues --   -0.96551  -0.94530  -0.83010  -0.82357  -0.81648
  Beta  occ. eigenvalues --   -0.77519  -0.74222  -0.68612  -0.66381  -0.64478
  Beta  occ. eigenvalues --   -0.63626  -0.58535  -0.56050  -0.55018  -0.52938
  Beta  occ. eigenvalues --   -0.52421  -0.51308  -0.49731  -0.48105  -0.47329
  Beta  occ. eigenvalues --   -0.46131  -0.45140  -0.44425  -0.43825  -0.42532
  Beta  occ. eigenvalues --   -0.41020  -0.39025  -0.38271  -0.34760  -0.33617
  Beta  occ. eigenvalues --   -0.31487  -0.29370  -0.28912  -0.27944
  Beta virt. eigenvalues --    0.00690   0.03421   0.04074   0.06534   0.11120
  Beta virt. eigenvalues --    0.12268   0.13572   0.15341   0.16661   0.16812
  Beta virt. eigenvalues --    0.17833   0.18200   0.18680   0.19267   0.20338

 Mulliken charges and spin densities:
               1          2
     1  C   -0.028225   0.000000
     2  C    0.065259   0.000000
     3  C    0.029477  -0.000000
     4  C    0.071069   0.000000
     5  N   -0.169721  -0.000000
     6  C    0.084646  -0.000000
     7  C    0.032325  -0.000000
     8  N   -0.162482  -0.000000
     9  C    0.079073  -0.000000
    10  C   -0.021766   0.000000
    11  C    0.016460  -0.000000
    12  C    0.112740   0.000000
    13  O   -0.239674  -0.000000
    14  C    0.059738   0.000000
    15  H   -0.014153   0.000000
    16  H   -0.012020   0.000000
    17  H   -0.021125  -0.000000
    18  H   -0.001185   0.000000
    19  H   -0.002638   0.000000
    20  H   -0.013966   0.000000
    21  H   -0.010051   0.000000
    22  H    0.047597  -0.000000
    23  H    0.045518  -0.000000
    24  H    0.053102   0.000000
 Sum of Mulliken charges =  -0.00000   0.00000

 Dipole moment (field-independent basis, Debye):
    X=              1.7040    Y=              3.7105    Z=              0.4753  Tot=              4.1107
 Quadrupole moment (field-independent basis, Debye-Ang):
   XX=            -62.9207   YY=            -76.1369   ZZ=            -82.4153
   XY=              0.6655   XZ=             -1.1491   YZ=              0.2471

 Normal termination of Gaussian 16 at Sun Jul 26 12:47:31 2020.
