 Gaussian 16, Revision A.03,
 Gaussian 16:  EM64L-G16RevA.03 25-Dec-2016

 ---------------------------------------------------------------
 #P uLC-wPBE/cc-pVDZ iop(3/107=0458800000, 3/108=0458800000) opt
 ---------------------------------------------------------------

 --------------
 H44 C63 S14 O7
 --------------
 Symbolic Z-matrix:
 Charge =  0 Multiplicity = 1

 SCF Done:  E(ULC-wPBE) =  -8524.56481595     A.U. after   18 cycles
 SCF Done:  E(ULC-wPBE) =  -8524.67344324     A.U. after   13 cycles
 SCF Done:  E(ULC-wPBE) =  -8524.79150583     A.U. after   15 cycles
 SCF Done:  E(ULC-wPBE) =  -8524.82595157     A.U. after   14 cycles
 SCF Done:  E(ULC-wPBE) =  -8524.83224143     A.U. after   13 cycles
 SCF Done:  E(ULC-wPBE) =  -8524.83416053     A.U. after   13 cycles
 SCF Done:  E(ULC-wPBE) =  -8524.83604127     A.U. after   15 cycles
 SCF Done:  E(ULC-wPBE) =  -8524.83569569     A.U. after   15 cycles
 SCF Done:  E(ULC-wPBE) =  -8524.83778070     A.U. after   13 cycles
 SCF Done:  E(ULC-wPBE) =  -8524.83834994     A.U. after   18 cycles
 SCF Done:  E(ULC-wPBE) =  -8524.83968630     A.U. after   10 cycles
 SCF Done:  E(ULC-wPBE) =  -8524.83969238     A.U. after   10 cycles
 SCF Done:  E(ULC-wPBE) =  -8524.83969614     A.U. after   10 cycles
 SCF Done:  E(ULC-wPBE) =  -8524.83969673     A.U. after   10 cycles
 SCF Done:  E(ULC-wPBE) =  -8524.83969756     A.U. after   10 cycles
 SCF Done:  E(ULC-wPBE) =  -8524.83969767     A.U. after   10 cycles
 SCF Done:  E(ULC-wPBE) =  -8524.83969776     A.U. after   10 cycles
 SCF Done:  E(ULC-wPBE) =  -8524.83969802     A.U. after   10 cycles
 SCF Done:  E(ULC-wPBE) =  -8524.83969807     A.U. after    7 cycles
 SCF Done:  E(ULC-wPBE) =  -8524.83969808     A.U. after    7 cycles
 Optimization completed on the basis of negligible forces.
    -- Stationary point found.

                         Standard orientation:
 ---------------------------------------------------------------------
 Center     Atomic      Atomic             Coordinates (Angstroms)
 Number     Number       Type             X           Y           Z
 ---------------------------------------------------------------------
      1          6           0      -25.416200    2.619228    1.352349
      2          6           0      -24.469598    2.760913    2.313746
      3          6           0      -23.218879    2.215374    1.921615
      4          6           0      -23.239720    1.669299    0.668883
      5         16           0      -24.807887    1.826877   -0.034913
      6          6           0      -22.134438    1.030256   -0.027638
      7          6           0      -22.111530    0.488311   -1.285061
      8          8           0      -23.221854    0.504250   -2.049618
      9          6           0      -23.132531   -0.046402   -3.339225
     10          6           0      -20.843864   -0.042778   -1.652901
     11          6           0      -19.917848    0.094377   -0.661923
     12         16           0      -20.588606    0.864508    0.718477
     13          6           0      -18.529901   -0.348650   -0.689588
     14          6           0      -18.022813   -1.439220   -1.331903
     15          6           0      -16.624688   -1.574700   -1.161609
     16          6           0      -16.077584   -0.590276   -0.385427
     17         16           0      -17.290635    0.523323    0.128734
     18          6           0      -14.682004   -0.439176   -0.014842
     19          6           0      -14.105960    0.521671    0.773353
     20          8           0      -14.863950    1.494319    1.314603
     21          6           0      -14.222992    2.448392    2.124681
     22          6           0      -12.702706    0.356807    0.937050
     23          6           0      -12.227298   -0.730438    0.265047
     24         16           0      -13.482085   -1.543912   -0.578321
     25          6           0      -10.857173   -1.217868    0.203338
     26          6           0      -10.423191   -2.488719   -0.033124
     27          6           0       -9.013014   -2.599945   -0.008539
     28          6           0       -8.381985   -1.414116    0.248451
     29         16           0       -9.533183   -0.144294    0.448345
     30          6           0       -6.952047   -1.184453    0.345406
     31          6           0       -6.288228   -0.012886    0.597328
     32          8           0       -6.978675    1.126511    0.795417
     33          6           0       -6.243515    2.301424    1.034706
     34          6           0       -4.873729   -0.156689    0.629522
     35          6           0       -4.478800   -1.441255    0.397934
     36         16           0       -5.824226   -2.472099    0.126564
     37          6           0       -3.123491   -1.969176    0.362290
     38          6           0       -2.702644   -3.246790    0.582162
     39          6           0       -1.297385   -3.399675    0.480773
     40          6           0       -0.654503   -2.230506    0.185138
     41         16           0       -1.788102   -0.941174    0.005344
     42          6           0        0.769122   -1.999441    0.011812
     43          6           0        1.760713   -2.935867   -0.137336
     44          8           0        1.476289   -4.253275   -0.122223
     45          6           0        2.536247   -5.144534   -0.369774
     46          6           0        3.051980   -2.365315   -0.310849
     47          6           0        3.028725   -1.001807   -0.286037
     48         16           0        1.440138   -0.409731   -0.028587
     49          6           0        4.146548   -0.082721   -0.436740
     50          6           0        4.131376    1.210983   -0.865445
     51          6           0        5.417991    1.804070   -0.903683
     52          6           0        6.409173    0.952330   -0.504028
     53         16           0        5.751058   -0.578585   -0.053514
     54          6           0        7.837795    1.201908   -0.420001
     55          6           0        8.485102    2.409971   -0.480832
     56          8           0        7.796007    3.556434   -0.649800
     57          6           0        8.524933    4.758461   -0.606521
     58          6           0        9.896143    2.300467   -0.338811
     59          6           0       10.306961    1.009835   -0.177433
     60         16           0        8.980569   -0.076212   -0.221435
     61          6           0       11.664170    0.515805    0.002792
     62          6           0       12.069914   -0.629477    0.621566
     63          6           0       13.476085   -0.785348    0.618702
     64          6           0       14.132407    0.243029    0.000576
     65         16           0       13.008927    1.407595   -0.598821
     66          6           0       15.566517    0.394655   -0.165043
     67          6           0       16.253515    1.390727   -0.807254
     68          8           0       15.586051    2.407278   -1.386867
     69          6           0       16.341638    3.383749   -2.059972
     70          6           0       17.664346    1.211850   -0.788178
     71          6           0       18.033331    0.078514   -0.125516
     72         16           0       16.668195   -0.761543    0.488430
     73          6           0       19.377874   -0.435381    0.092032
     74          6           0       19.764130   -1.726003    0.301821
     75          6           0       21.163298   -1.859068    0.465810
     76          6           0       21.832850   -0.670546    0.377489
     77         16           0       20.731299    0.628907    0.104960
     78          6           0       23.266560   -0.459664    0.492720
     79          6           0       23.963648    0.717896    0.430698
     80          8           0       23.312179    1.881580    0.235965
     81          6           0       24.078205    3.060091    0.205544
     82          6           0       25.371185    0.551201    0.588579
     83          6           0       25.704635   -0.751535    0.766107
     84         16           0       24.346895   -1.779775    0.744947
     85          1           0      -26.452142    2.942465    1.383637
     86          1           0      -24.649704    3.237936    3.273547
     87          1           0      -22.330736    2.227736    2.549271
     88          1           0      -22.868839   -1.112790   -3.303401
     89          1           0      -22.398378    0.490900   -3.955821
     90          1           0      -24.122532    0.060536   -3.789768
     91          1           0      -20.609290   -0.482800   -2.616791
     92          1           0      -18.638608   -2.140392   -1.889008
     93          1           0      -16.041163   -2.385338   -1.591455
     94          1           0      -14.999898    3.140611    2.458561
     95          1           0      -13.757459    1.980280    3.003085
     96          1           0      -13.462857    3.006696    1.560781
     97          1           0      -12.069437    0.997440    1.543061
     98          1           0      -11.094975   -3.327086   -0.200841
     99          1           0       -8.480405   -3.534196   -0.168834
    100          1           0       -5.647045    2.220811    1.954011
    101          1           0       -5.583542    2.539953    0.189241
    102          1           0       -6.975390    3.104244    1.153427
    103          1           0       -4.173245    0.646535    0.836700
    104          1           0       -3.381657   -4.058044    0.834252
    105          1           0       -0.768318   -4.333851    0.630311
    106          1           0        2.984869   -4.970272   -1.357484
    107          1           0        2.107003   -6.149393   -0.346139
    108          1           0        3.313438   -5.069889    0.403493
    109          1           0        3.963431   -2.932998   -0.471218
    110          1           0        3.221092    1.722293   -1.169944
    111          1           0        5.617230    2.820060   -1.224721
    112          1           0        7.797958    5.565505   -0.728346
    113          1           0        9.038698    4.882121    0.356830
    114          1           0        9.259326    4.813301   -1.422204
    115          1           0       10.585262    3.139313   -0.331127
    116          1           0       11.382345   -1.333667    1.083838
    117          1           0       13.988371   -1.632304    1.068589
    118          1           0       17.028604    3.900946   -1.375801
    119          1           0       15.625732    4.105899   -2.460327
    120          1           0       16.912281    2.946375   -2.890858
    121          1           0       18.380621    1.875888   -1.262152
    122          1           0       19.068973   -2.561889    0.319513
    123          1           0       21.660842   -2.810546    0.637149
    124          1           0       24.801456    3.047462   -0.621780
    125          1           0       24.609468    3.217681    1.154483
    126          1           0       23.374518    3.881828    0.050935
    127          1           0       26.098046    1.356986    0.571328
    128          1           0       26.698811   -1.162292    0.910080
 ---------------------------------------------------------------------

 Alpha  occ. eigenvalues --   -0.46656  -0.46546  -0.46418  -0.46333  -0.46170
 Alpha  occ. eigenvalues --   -0.45854  -0.45666  -0.45456  -0.45266  -0.44989
 Alpha  occ. eigenvalues --   -0.44692  -0.44487  -0.43872  -0.42876  -0.42376
 Alpha  occ. eigenvalues --   -0.41416  -0.40443  -0.39343  -0.38189  -0.37251
 Alpha  occ. eigenvalues --   -0.36978  -0.36735  -0.36733  -0.36643  -0.36388
 Alpha  occ. eigenvalues --   -0.36018  -0.35734  -0.35509  -0.35279  -0.35238
 Alpha  occ. eigenvalues --   -0.35163  -0.35134  -0.34830  -0.34447  -0.32819
 Alpha  occ. eigenvalues --   -0.31683  -0.30354  -0.28997  -0.27743  -0.26658
 Alpha  occ. eigenvalues --   -0.25920
 Alpha virt. eigenvalues --   -0.00665   0.00187   0.01218   0.02409   0.03711
 Alpha virt. eigenvalues --    0.04874   0.06023   0.07760   0.08898   0.09685
 Alpha virt. eigenvalues --    0.10165   0.10734   0.11101   0.11698   0.12074

  Beta  occ. eigenvalues --  -88.36164 -88.35822 -88.35689 -88.35676 -88.35601
  Beta  occ. eigenvalues --  -88.35523 -88.35356 -88.35336 -88.35301 -88.35189
  Beta  occ. eigenvalues --  -88.34982 -88.34783 -88.34637 -88.33800 -19.05834
  Beta  occ. eigenvalues --  -19.05602 -19.05303 -19.05252 -19.05216 -19.04878
  Beta  occ. eigenvalues --  -19.04444 -10.22781 -10.22590 -10.22387 -10.22344
  Beta  occ. eigenvalues --  -10.22268 -10.21968 -10.21912 -10.21688 -10.21446
  Beta  occ. eigenvalues --  -10.21401 -10.21306 -10.21303 -10.20951 -10.20751
  Beta  occ. eigenvalues --  -10.20706 -10.20512 -10.20499 -10.20481 -10.20232
  Beta  occ. eigenvalues --  -10.20113 -10.19982 -10.19788 -10.19747 -10.19736
  Beta  occ. eigenvalues --  -10.19637 -10.19620 -10.19527 -10.19514 -10.19466
  Beta  occ. eigenvalues --  -10.19267 -10.19254 -10.19199 -10.18898 -10.18878
  Beta  occ. eigenvalues --  -10.18723 -10.18694 -10.18567 -10.18549 -10.18434
  Beta  occ. eigenvalues --  -10.18213 -10.17778 -10.17203 -10.16721 -10.16487
  Beta  occ. eigenvalues --  -10.16475 -10.16464 -10.16424 -10.16339 -10.16094
  Beta  occ. eigenvalues --  -10.16078 -10.16067 -10.16011 -10.16010 -10.15744
  Beta  occ. eigenvalues --  -10.15732 -10.15697 -10.15420 -10.15398 -10.15307
  Beta  occ. eigenvalues --  -10.15246 -10.15087 -10.14529 -10.14319  -7.97078
  Beta  occ. eigenvalues --   -7.96731  -7.96596  -7.96583  -7.96455  -7.96432
  Beta  occ. eigenvalues --   -7.96290  -7.96236  -7.96190  -7.96097  -7.95836
  Beta  occ. eigenvalues --   -7.95688  -7.95485  -7.94665  -5.98349  -5.98017
  Beta  occ. eigenvalues --   -5.97879  -5.97866  -5.97803  -5.97740  -5.97718
  Beta  occ. eigenvalues --   -5.97565  -5.97510  -5.97476  -5.97472  -5.97383
  Beta  occ. eigenvalues --   -5.97364  -5.97336  -5.97323  -5.97174  -5.97174
  Beta  occ. eigenvalues --   -5.97122  -5.97018  -5.96985  -5.96969  -5.96964
  Beta  occ. eigenvalues --   -5.96910  -5.96857  -5.96843  -5.96840  -5.96769
  Beta  occ. eigenvalues --   -5.96748  -5.96685  -5.96567  -5.96555  -5.96512
  Beta  occ. eigenvalues --   -5.96481  -5.96426  -5.96351  -5.96201  -5.96127
  Beta  occ. eigenvalues --   -5.95952  -5.95937  -5.95784  -5.95367  -5.94986
  Beta  occ. eigenvalues --   -1.25531  -1.25305  -1.24970  -1.24958  -1.24885
  Beta  occ. eigenvalues --   -1.24601  -1.24168  -1.09830  -1.09658  -1.09371
  Beta  occ. eigenvalues --   -1.09066  -1.08782  -1.08448  -1.08203  -1.07557
  Beta  occ. eigenvalues --   -1.07069  -1.06636  -1.06197  -1.05769  -1.05437
  Beta  occ. eigenvalues --   -1.04830  -0.97999  -0.97481  -0.96775  -0.95988
  Beta  occ. eigenvalues --   -0.95116  -0.94347  -0.93808  -0.93133  -0.92997
  Beta  occ. eigenvalues --   -0.92841  -0.92697  -0.92439  -0.92357  -0.91941
  Beta  occ. eigenvalues --   -0.91344  -0.91088  -0.90972  -0.90798  -0.90529
  Beta  occ. eigenvalues --   -0.90135  -0.89793  -0.89325  -0.89060  -0.88914
  Beta  occ. eigenvalues --   -0.88668  -0.88376  -0.88215  -0.87147  -0.86374
  Beta  occ. eigenvalues --   -0.85851  -0.85234  -0.84471  -0.83676  -0.82806
  Beta  occ. eigenvalues --   -0.82209  -0.78545  -0.77669  -0.77328  -0.76660
  Beta  occ. eigenvalues --   -0.76025  -0.75721  -0.75081  -0.74182  -0.73164
  Beta  occ. eigenvalues --   -0.72939  -0.72799  -0.72541  -0.71608  -0.71128
  Beta  occ. eigenvalues --   -0.70938  -0.70793  -0.70649  -0.70273  -0.70079
  Beta  occ. eigenvalues --   -0.69978  -0.69546  -0.68585  -0.68441  -0.68289
  Beta  occ. eigenvalues --   -0.68198  -0.67917  -0.67766  -0.67558  -0.67474
  Beta  occ. eigenvalues --   -0.67067  -0.66188  -0.65859  -0.65427  -0.65071
  Beta  occ. eigenvalues --   -0.64196  -0.63482  -0.63244  -0.62974  -0.62897
  Beta  occ. eigenvalues --   -0.62889  -0.62853  -0.62606  -0.62533  -0.62461
  Beta  occ. eigenvalues --   -0.62355  -0.62191  -0.62076  -0.61781  -0.61369
  Beta  occ. eigenvalues --   -0.61045  -0.59797  -0.59530  -0.59237  -0.59030
  Beta  occ. eigenvalues --   -0.58936  -0.58895  -0.58015  -0.57551  -0.57123
  Beta  occ. eigenvalues --   -0.56909  -0.56795  -0.56587  -0.56345  -0.56252
  Beta  occ. eigenvalues --   -0.56212  -0.56012  -0.55764  -0.55667  -0.55448
  Beta  occ. eigenvalues --   -0.55246  -0.55096  -0.54534  -0.54445  -0.54308
  Beta  occ. eigenvalues --   -0.54113  -0.54012  -0.53875  -0.53648  -0.53404
  Beta  occ. eigenvalues --   -0.53352  -0.53171  -0.53090  -0.52928  -0.52870
  Beta  occ. eigenvalues --   -0.52658  -0.52444  -0.52292  -0.52121  -0.51890
  Beta  occ. eigenvalues --   -0.51747  -0.51433  -0.51325  -0.51149  -0.50918
  Beta  occ. eigenvalues --   -0.50616  -0.50318  -0.49801  -0.49611  -0.49209
  Beta  occ. eigenvalues --   -0.48919  -0.48874  -0.48746  -0.48614  -0.48313
  Beta  occ. eigenvalues --   -0.48041  -0.47671  -0.47615  -0.47350  -0.47283
  Beta  occ. eigenvalues --   -0.47107  -0.47069  -0.47035  -0.46892  -0.46770
  Beta  occ. eigenvalues --   -0.46656  -0.46546  -0.46418  -0.46333  -0.46170
  Beta  occ. eigenvalues --   -0.45854  -0.45666  -0.45456  -0.45266  -0.44989
  Beta  occ. eigenvalues --   -0.44692  -0.44487  -0.43872  -0.42876  -0.42376
  Beta  occ. eigenvalues --   -0.41416  -0.40443  -0.39343  -0.38189  -0.37251
  Beta  occ. eigenvalues --   -0.36978  -0.36735  -0.36733  -0.36643  -0.36388
  Beta  occ. eigenvalues --   -0.36018  -0.35734  -0.35509  -0.35279  -0.35238
  Beta  occ. eigenvalues --   -0.35163  -0.35134  -0.34830  -0.34447  -0.32819
  Beta  occ. eigenvalues --   -0.31683  -0.30354  -0.28997  -0.27743  -0.26658
  Beta  occ. eigenvalues --   -0.25920
  Beta virt. eigenvalues --   -0.00665   0.00187   0.01218   0.02409   0.03711
  Beta virt. eigenvalues --    0.04874   0.06023   0.07760   0.08898   0.09685
  Beta virt. eigenvalues --    0.10165   0.10734   0.11101   0.11698   0.12074

 Mulliken charges and spin densities:
               1          2
     1  C   -0.160241   0.000000
     2  C    0.040014  -0.000000
     3  C   -0.035409   0.000000
     4  C   -0.113381   0.000000
     5  S    0.167153  -0.000000
     6  C   -0.158448  -0.000000
     7  C    0.156361   0.000000
     8  O   -0.268477  -0.000000
     9  C    0.036802   0.000000
    10  C   -0.003439  -0.000000
    11  C   -0.126162   0.000000
    12  S    0.177814  -0.000000
    13  C   -0.142928  -0.000000
    14  C    0.022216   0.000000
    15  C   -0.002986  -0.000000
    16  C   -0.111444   0.000000
    17  S    0.196910   0.000000
    18  C   -0.167499  -0.000000
    19  C    0.155219   0.000000
    20  O   -0.268583   0.000000
    21  C    0.036148   0.000000
    22  C   -0.004956  -0.000000
    23  C   -0.121592  -0.000000
    24  S    0.168517   0.000000
    25  C   -0.141630   0.000000
    26  C    0.022350   0.000000
    27  C   -0.001883   0.000000
    28  C   -0.108489  -0.000000
    29  S    0.182488  -0.000000
    30  C   -0.165142   0.000000
    31  C    0.153935   0.000000
    32  O   -0.269637   0.000000
    33  C    0.036068   0.000000
    34  C   -0.005120  -0.000000
    35  C   -0.121413  -0.000000
    36  S    0.170716  -0.000000
    37  C   -0.138735   0.000000
    38  C    0.029088   0.000000
    39  C    0.002766  -0.000000
    40  C   -0.109395   0.000000
    41  S    0.160466   0.000000
    42  C   -0.158903  -0.000000
    43  C    0.152341   0.000000
    44  O   -0.267549   0.000000
    45  C    0.034989  -0.000000
    46  C   -0.008329  -0.000000
    47  C   -0.123716   0.000000
    48  S    0.179898   0.000000
    49  C   -0.140500  -0.000000
    50  C    0.030092   0.000000
    51  C    0.001992  -0.000000
    52  C   -0.109385   0.000000
    53  S    0.160931   0.000000
    54  C   -0.159407  -0.000000
    55  C    0.152167   0.000000
    56  O   -0.267596  -0.000000
    57  C    0.035527  -0.000000
    58  C   -0.008203  -0.000000
    59  C   -0.123536  -0.000000
    60  S    0.180071   0.000000
    61  C   -0.143746  -0.000000
    62  C    0.023657   0.000000
    63  C   -0.002110  -0.000000
    64  C   -0.108034   0.000000
    65  S    0.181930   0.000000
    66  C   -0.165800   0.000000
    67  C    0.153693  -0.000000
    68  O   -0.269698  -0.000000
    69  C    0.036473   0.000000
    70  C   -0.004279  -0.000000
    71  C   -0.120920   0.000000
    72  S    0.171699  -0.000000
    73  C   -0.142348   0.000000
    74  C    0.020891  -0.000000
    75  C    0.002397  -0.000000
    76  C   -0.100357  -0.000000
    77  S    0.182889  -0.000000
    78  C   -0.175143  -0.000000
    79  C    0.137097   0.000000
    80  O   -0.268687   0.000000
    81  C    0.035349   0.000000
    82  C    0.003461  -0.000000
    83  C   -0.138632  -0.000000
    84  S    0.167107   0.000000
    85  H    0.042977  -0.000000
    86  H    0.011477  -0.000000
    87  H    0.018808   0.000000
    88  H    0.053161  -0.000000
    89  H    0.055468  -0.000000
    90  H    0.069697   0.000000
    91  H    0.015724  -0.000000
    92  H    0.007772   0.000000
    93  H    0.018711  -0.000000
    94  H    0.072108  -0.000000
    95  H    0.056731  -0.000000
    96  H    0.055644   0.000000
    97  H    0.024624   0.000000
    98  H    0.018869  -0.000000
    99  H    0.019976   0.000000
   100  H    0.057495   0.000000
   101  H    0.057758  -0.000000
   102  H    0.069854  -0.000000
   103  H    0.025790  -0.000000
   104  H    0.020360  -0.000000
   105  H    0.017645  -0.000000
   106  H    0.058415   0.000000
   107  H    0.068100  -0.000000
   108  H    0.057276   0.000000
   109  H    0.026682  -0.000000
   110  H    0.019947  -0.000000
   111  H    0.017144  -0.000000
   112  H    0.067668  -0.000000
   113  H    0.057921  -0.000000
   114  H    0.056019  -0.000000
   115  H    0.025420   0.000000
   116  H    0.019253   0.000000
   117  H    0.020317   0.000000
   118  H    0.055947  -0.000000
   119  H    0.069783  -0.000000
   120  H    0.058030  -0.000000
   121  H    0.024806  -0.000000
   122  H    0.019915  -0.000000
   123  H    0.020332  -0.000000
   124  H    0.055745   0.000000
   125  H    0.056624   0.000000
   126  H    0.070282  -0.000000
   127  H    0.024007  -0.000000
   128  H    0.053902   0.000000
 Sum of Mulliken charges =  -0.00000   0.00000

 Dipole moment (field-independent basis, Debye):
    X=             16.2385    Y=              4.4573    Z=             -1.4097  Tot=             16.8980
 Quadrupole moment (field-independent basis, Debye-Ang):
   XX=           -416.0984   YY=           -502.4860   ZZ=           -572.0016
   XY=             69.5466   XZ=             11.3417   YZ=              5.3471

 Normal termination of Gaussian 16 at Sat Jul 25 06:56:25 2020.
