 Gaussian 16, Revision A.03,
 Gaussian 16:  EM64L-G16RevA.03 25-Dec-2016

 ---------------------------------------------------------------
 #P uLC-wPBE/cc-pVDZ iop(3/107=0158200000, 3/108=0158200000) opt
 ---------------------------------------------------------------

 ----------------
 H37 C50 S5 N5 O5
 ----------------
 Symbolic Z-matrix:
 Charge =  0 Multiplicity = 1

 SCF Done:  E(ULC-wPBE) =  -4565.23076164     A.U. after   18 cycles
 SCF Done:  E(ULC-wPBE) =  -4565.31893361     A.U. after   14 cycles
 SCF Done:  E(ULC-wPBE) =  -4565.40081267     A.U. after   15 cycles
 SCF Done:  E(ULC-wPBE) =  -4565.42469615     A.U. after   15 cycles
 SCF Done:  E(ULC-wPBE) =  -4565.43658809     A.U. after   17 cycles
 SCF Done:  E(ULC-wPBE) =  -4565.44147251     A.U. after   16 cycles
 SCF Done:  E(ULC-wPBE) =  -4565.44818617     A.U. after   17 cycles
 SCF Done:  E(ULC-wPBE) =  -4565.45193380     A.U. after   19 cycles
 SCF Done:  E(ULC-wPBE) =  -4565.45417303     A.U. after   13 cycles
 SCF Done:  E(ULC-wPBE) =  -4565.45455520     A.U. after   13 cycles
 SCF Done:  E(ULC-wPBE) =  -4565.45466367     A.U. after   11 cycles
 SCF Done:  E(ULC-wPBE) =  -4565.45467658     A.U. after   11 cycles
 SCF Done:  E(ULC-wPBE) =  -4565.45468118     A.U. after    8 cycles
 SCF Done:  E(ULC-wPBE) =  -4565.45468294     A.U. after    8 cycles
 SCF Done:  E(ULC-wPBE) =  -4565.45468397     A.U. after    8 cycles
 SCF Done:  E(ULC-wPBE) =  -4565.45468422     A.U. after    7 cycles
 SCF Done:  E(ULC-wPBE) =  -4565.45468440     A.U. after    6 cycles
 SCF Done:  E(ULC-wPBE) =  -4565.45468443     A.U. after    6 cycles
 SCF Done:  E(ULC-wPBE) =  -4565.45468447     A.U. after    6 cycles
 SCF Done:  E(ULC-wPBE) =  -4565.45468447     A.U. after    6 cycles
 Optimization completed.
    -- Stationary point found.

                         Standard orientation:
 ---------------------------------------------------------------------
 Center     Atomic      Atomic             Coordinates (Angstroms)
 Number     Number       Type             X           Y           Z
 ---------------------------------------------------------------------
      1          6           0       18.274327    2.079936    0.592924
      2          6           0       17.120459    2.288104    1.351770
      3          7           0       15.897473    1.938892    0.929616
      4          6           0       15.750745    1.358061   -0.278049
      5          6           0       16.874164    1.106938   -1.119790
      6          8           0       16.633069    0.514871   -2.324845
      7          6           0       17.749880    0.257241   -3.171584
      8          6           0       18.147266    1.478509   -0.665247
      9          6           0       14.368896    1.014552   -0.637725
     10          6           0       13.808081    0.427604   -1.763226
     11          6           0       12.397243    0.285236   -1.674472
     12          6           0       11.870949    0.761245   -0.482765
     13         16           0       13.135200    1.387151    0.548630
     14          6           0       10.465505    0.776375   -0.056590
     15          6           0        9.541188   -0.160075   -0.559852
     16          7           0        8.249565   -0.181322   -0.221774
     17          6           0        7.768253    0.719092    0.659343
     18          6           0        8.625733    1.696435    1.243168
     19          8           0        8.067758    2.567945    2.131097
     20          6           0        8.918063    3.548455    2.721684
     21          6           0        9.973618    1.717818    0.869505
     22          6           0        6.335531    0.605642    0.950215
     23          6           0        5.486822    1.322326    1.782699
     24          6           0        4.145598    0.855886    1.747819
     25          6           0        3.958879   -0.218457    0.890440
     26         16           0        5.459338   -0.656120    0.107945
     27          6           0        2.715484   -0.947991    0.611442
     28          6           0        1.457299   -0.335707    0.777504
     29          7           0        0.296581   -0.957025    0.556137
     30          6           0        0.286242   -2.237850    0.134460
     31          6           0        1.505743   -2.941471   -0.084492
     32          8           0        1.415483   -4.231847   -0.518361
     33          6           0        2.631377   -4.939530   -0.748793
     34          6           0        2.715346   -2.284935    0.165744
     35          6           0       -1.045535   -2.817173   -0.070306
     36          6           0       -1.468116   -4.071854   -0.488015
     37          6           0       -2.882230   -4.193279   -0.539528
     38          6           0       -3.548928   -3.035563   -0.165113
     39         16           0       -2.415111   -1.778615    0.266911
     40          6           0       -4.998368   -2.804801   -0.109388
     41          6           0       -5.561212   -1.521842   -0.253382
     42          7           0       -6.873737   -1.278840   -0.212699
     43          6           0       -7.742134   -2.294293   -0.034775
     44          6           0       -7.275123   -3.632859    0.113517
     45          8           0       -8.215147   -4.606429    0.294640
     46          6           0       -7.759176   -5.946715    0.450585
     47          6           0       -5.897963   -3.873416    0.081784
     48          6           0       -9.157021   -1.908934   -0.003720
     49          6           0      -10.325636   -2.641779    0.153191
     50          6           0      -11.495405   -1.836901    0.119156
     51          6           0      -11.230784   -0.487559   -0.065601
     52         16           0       -9.511680   -0.203552   -0.189562
     53          6           0      -12.193389    0.618428   -0.157428
     54          6           0      -11.914401    1.800733   -0.868800
     55          7           0      -12.768926    2.821955   -0.975948
     56          6           0      -13.981510    2.750952   -0.392170
     57          6           0      -14.365103    1.592683    0.345364
     58          8           0      -15.607411    1.595505    0.912524
     59          6           0      -15.996913    0.447779    1.659573
     60          6           0      -13.457429    0.535369    0.461513
     61          6           0      -14.836791    3.929995   -0.574388
     62          6           0      -16.119628    4.233233   -0.140195
     63          6           0      -16.561400    5.521009   -0.562143
     64          6           0      -15.613348    6.184176   -1.311593
     65         16           0      -14.170697    5.252476   -1.514607
     66          1           0       19.260119    2.380206    0.971947
     67          1           0       17.172804    2.757171    2.346535
     68          1           0       18.272147    1.195253   -3.456362
     69          1           0       18.474695   -0.435028   -2.692933
     70          1           0       17.337270   -0.218370   -4.077927
     71          1           0       19.036559    1.302910   -1.282204
     72          1           0       14.404551    0.120738   -2.625644
     73          1           0       11.778335   -0.129070   -2.479393
     74          1           0        9.869548   -0.943053   -1.260346
     75          1           0        8.275811    4.131076    3.404179
     76          1           0        9.740315    3.079303    3.302142
     77          1           0        9.350779    4.227591    1.956947
     78          1           0       10.653519    2.475621    1.277740
     79          1           0        5.834306    2.152829    2.401831
     80          1           0        3.341097    1.279903    2.360636
     81          1           0        1.388327    0.717397    1.089958
     82          1           0        2.333581   -5.941472   -1.102841
     83          1           0        3.227390   -5.042617    0.182669
     84          1           0        3.250911   -4.444677   -1.526282
     85          1           0        3.670911   -2.807464    0.035105
     86          1           0       -0.769899   -4.868985   -0.754334
     87          1           0       -3.399014   -5.100463   -0.876490
     88          1           0       -4.913135   -0.647444   -0.423421
     89          1           0       -7.199302   -6.295137   -0.443346
     90          1           0       -7.117448   -6.058993    1.350285
     91          1           0       -8.667418   -6.561694    0.573066
     92          1           0       -5.505133   -4.886283    0.227562
     93          1           0      -10.326936   -3.727105    0.279424
     94          1           0      -12.511590   -2.243316    0.195146
     95          1           0      -10.951064    1.920318   -1.389775
     96          1           0      -15.330753    0.281506    2.532901
     97          1           0      -17.020362    0.654161    2.017567
     98          1           0      -16.007447   -0.467140    1.029420
     99          1           0      -13.708962   -0.353822    1.051123
    100          1           0      -16.714610    3.542818    0.462577
    101          1           0      -17.545291    5.940423   -0.319359
    102          1           0      -15.685006    7.180507   -1.760574
 ---------------------------------------------------------------------

 The electronic state is 1-A.
 Alpha  occ. eigenvalues --  -88.18588 -88.18218 -88.17925 -88.17671 -88.17060
 Alpha  occ. eigenvalues --  -18.91146 -18.90650 -18.90418 -18.90345 -18.89916
 Alpha  occ. eigenvalues --  -14.09281 -14.08976 -14.08634 -14.08411 -14.07963
 Alpha  occ. eigenvalues --  -10.06677 -10.06237 -10.06101 -10.05947 -10.05809
 Alpha  occ. eigenvalues --  -10.05489 -10.05383 -10.05368 -10.05316 -10.05019
 Alpha  occ. eigenvalues --  -10.04186 -10.03639 -10.03316 -10.03161 -10.02756
 Alpha  occ. eigenvalues --  -10.02364 -10.02280 -10.02195 -10.01991 -10.01943
 Alpha  occ. eigenvalues --  -10.01843 -10.01783 -10.01670 -10.01596 -10.01565
 Alpha  occ. eigenvalues --  -10.01530 -10.01512 -10.01352 -10.01351 -10.01317
 Alpha  occ. eigenvalues --  -10.01159 -10.00971 -10.00865 -10.00758 -10.00751
 Alpha  occ. eigenvalues --  -10.00591 -10.00561 -10.00463 -10.00087  -9.99990
 Alpha  occ. eigenvalues --   -9.99404  -9.99367  -9.99038  -9.98957  -9.98936
 Alpha  occ. eigenvalues --   -9.98754  -9.98667  -9.98543  -9.97926  -9.97843
 Alpha  occ. eigenvalues --   -7.78845  -7.78477  -7.78176  -7.77922  -7.77319
 Alpha  occ. eigenvalues --   -5.80900  -5.80532  -5.80443  -5.80233  -5.80076
 Alpha  occ. eigenvalues --   -5.80061  -5.79979  -5.79772  -5.79691  -5.79517
 Alpha  occ. eigenvalues --   -5.79394  -5.79365  -5.79140  -5.78902  -5.78558
 Alpha  occ. eigenvalues --   -1.09191  -1.08687  -1.08441  -1.08373  -1.07957
 Alpha  occ. eigenvalues --   -0.96058  -0.95796  -0.95479  -0.95278  -0.94835
 Alpha  occ. eigenvalues --   -0.89941  -0.89539  -0.89229  -0.88876  -0.87803
 Alpha  occ. eigenvalues --   -0.83774  -0.83290  -0.82836  -0.82748  -0.82392
 Alpha  occ. eigenvalues --   -0.81264  -0.80885  -0.80546  -0.80178  -0.79753
 Alpha  occ. eigenvalues --   -0.76440  -0.76130  -0.75884  -0.75586  -0.75297
 Alpha  occ. eigenvalues --   -0.75120  -0.74776  -0.74418  -0.74259  -0.74073
 Alpha  occ. eigenvalues --   -0.73752  -0.73291  -0.72649  -0.71798  -0.70928
 Alpha  occ. eigenvalues --   -0.68760  -0.67443  -0.66500  -0.65551  -0.65497
 Alpha  occ. eigenvalues --   -0.64952  -0.64940  -0.64564  -0.64122  -0.63776
 Alpha  occ. eigenvalues --   -0.60175  -0.59824  -0.59574  -0.59442  -0.59185
 Alpha  occ. eigenvalues --   -0.58992  -0.58870  -0.58426  -0.58082  -0.57418
 Alpha  occ. eigenvalues --   -0.57225  -0.56233  -0.55748  -0.55538  -0.55084
 Alpha  occ. eigenvalues --   -0.54784  -0.54503  -0.54350  -0.54130  -0.53904
 Alpha  occ. eigenvalues --   -0.53488  -0.53356  -0.53141  -0.52963  -0.52272
 Alpha  occ. eigenvalues --   -0.52193  -0.51653  -0.51451  -0.51429  -0.51418
 Alpha  occ. eigenvalues --   -0.51045  -0.50352  -0.49573  -0.48792  -0.48396
 Alpha  occ. eigenvalues --   -0.48049  -0.47970  -0.47784  -0.47553  -0.47197
 Alpha  occ. eigenvalues --   -0.47104  -0.46593  -0.46282  -0.46072  -0.45803
 Alpha  occ. eigenvalues --   -0.45400  -0.45241  -0.44880  -0.44763  -0.44410
 Alpha  occ. eigenvalues --   -0.44206  -0.43947  -0.43825  -0.43516  -0.43430
 Alpha  occ. eigenvalues --   -0.43355  -0.43067  -0.42782  -0.42594  -0.42544
 Alpha  occ. eigenvalues --   -0.42208  -0.42142  -0.41934  -0.41866  -0.41722
 Alpha  occ. eigenvalues --   -0.41455  -0.41351  -0.41130  -0.40781  -0.40574
 Alpha  occ. eigenvalues --   -0.40179  -0.39402  -0.39115  -0.38867  -0.38744
 Alpha  occ. eigenvalues --   -0.38659  -0.38526  -0.38473  -0.38145  -0.38096
 Alpha  occ. eigenvalues --   -0.37981  -0.37663  -0.37521  -0.37281  -0.37087
 Alpha  occ. eigenvalues --   -0.36756  -0.36565  -0.35896  -0.34916  -0.33945
 Alpha  occ. eigenvalues --   -0.33257  -0.30668  -0.30406  -0.30263  -0.30084
 Alpha  occ. eigenvalues --   -0.30073  -0.29943  -0.29858  -0.29725  -0.29673
 Alpha  occ. eigenvalues --   -0.29545  -0.29455  -0.29284  -0.29231  -0.28828
 Alpha  occ. eigenvalues --   -0.28614  -0.27664  -0.26524  -0.25198  -0.23826
 Alpha  occ. eigenvalues --   -0.22764
 Alpha virt. eigenvalues --   -0.03773  -0.02620  -0.01211   0.00256   0.01429
 Alpha virt. eigenvalues --    0.02527   0.02753   0.02987   0.03269   0.03602
 Alpha virt. eigenvalues --    0.04653   0.05713   0.06970   0.07932   0.08319

  Beta  occ. eigenvalues --  -88.18588 -88.18218 -88.17925 -88.17671 -88.17060
  Beta  occ. eigenvalues --  -18.91146 -18.90650 -18.90418 -18.90345 -18.89916
  Beta  occ. eigenvalues --  -14.09281 -14.08976 -14.08634 -14.08411 -14.07963
  Beta  occ. eigenvalues --  -10.06677 -10.06237 -10.06101 -10.05947 -10.05809
  Beta  occ. eigenvalues --  -10.05489 -10.05383 -10.05368 -10.05316 -10.05019
  Beta  occ. eigenvalues --  -10.04186 -10.03639 -10.03316 -10.03161 -10.02756
  Beta  occ. eigenvalues --  -10.02364 -10.02280 -10.02195 -10.01991 -10.01943
  Beta  occ. eigenvalues --  -10.01843 -10.01783 -10.01670 -10.01596 -10.01565
  Beta  occ. eigenvalues --  -10.01530 -10.01512 -10.01352 -10.01351 -10.01317
  Beta  occ. eigenvalues --  -10.01159 -10.00971 -10.00865 -10.00758 -10.00751
  Beta  occ. eigenvalues --  -10.00591 -10.00561 -10.00463 -10.00087  -9.99990
  Beta  occ. eigenvalues --   -9.99404  -9.99367  -9.99038  -9.98957  -9.98936
  Beta  occ. eigenvalues --   -9.98754  -9.98667  -9.98543  -9.97926  -9.97843
  Beta  occ. eigenvalues --   -7.78845  -7.78477  -7.78176  -7.77922  -7.77319
  Beta  occ. eigenvalues --   -5.80900  -5.80532  -5.80443  -5.80233  -5.80076
  Beta  occ. eigenvalues --   -5.80061  -5.79979  -5.79772  -5.79691  -5.79517
  Beta  occ. eigenvalues --   -5.79394  -5.79365  -5.79140  -5.78902  -5.78558
  Beta  occ. eigenvalues --   -1.09191  -1.08687  -1.08441  -1.08373  -1.07957
  Beta  occ. eigenvalues --   -0.96058  -0.95796  -0.95479  -0.95278  -0.94835
  Beta  occ. eigenvalues --   -0.89941  -0.89539  -0.89229  -0.88876  -0.87803
  Beta  occ. eigenvalues --   -0.83774  -0.83290  -0.82836  -0.82748  -0.82392
  Beta  occ. eigenvalues --   -0.81264  -0.80885  -0.80546  -0.80178  -0.79753
  Beta  occ. eigenvalues --   -0.76440  -0.76130  -0.75884  -0.75586  -0.75297
  Beta  occ. eigenvalues --   -0.75120  -0.74776  -0.74418  -0.74259  -0.74073
  Beta  occ. eigenvalues --   -0.73752  -0.73291  -0.72649  -0.71798  -0.70928
  Beta  occ. eigenvalues --   -0.68760  -0.67443  -0.66500  -0.65551  -0.65497
  Beta  occ. eigenvalues --   -0.64952  -0.64940  -0.64564  -0.64122  -0.63776
  Beta  occ. eigenvalues --   -0.60175  -0.59824  -0.59574  -0.59442  -0.59185
  Beta  occ. eigenvalues --   -0.58992  -0.58870  -0.58426  -0.58082  -0.57418
  Beta  occ. eigenvalues --   -0.57225  -0.56233  -0.55748  -0.55538  -0.55084
  Beta  occ. eigenvalues --   -0.54784  -0.54503  -0.54350  -0.54130  -0.53904
  Beta  occ. eigenvalues --   -0.53488  -0.53356  -0.53141  -0.52963  -0.52272
  Beta  occ. eigenvalues --   -0.52193  -0.51653  -0.51451  -0.51429  -0.51418
  Beta  occ. eigenvalues --   -0.51045  -0.50352  -0.49573  -0.48792  -0.48396
  Beta  occ. eigenvalues --   -0.48049  -0.47970  -0.47784  -0.47553  -0.47197
  Beta  occ. eigenvalues --   -0.47104  -0.46593  -0.46282  -0.46072  -0.45803
  Beta  occ. eigenvalues --   -0.45400  -0.45241  -0.44880  -0.44763  -0.44410
  Beta  occ. eigenvalues --   -0.44206  -0.43947  -0.43825  -0.43516  -0.43430
  Beta  occ. eigenvalues --   -0.43355  -0.43067  -0.42782  -0.42594  -0.42544
  Beta  occ. eigenvalues --   -0.42208  -0.42142  -0.41934  -0.41866  -0.41722
  Beta  occ. eigenvalues --   -0.41455  -0.41351  -0.41130  -0.40781  -0.40574
  Beta  occ. eigenvalues --   -0.40179  -0.39402  -0.39115  -0.38867  -0.38744
  Beta  occ. eigenvalues --   -0.38659  -0.38526  -0.38473  -0.38145  -0.38096
  Beta  occ. eigenvalues --   -0.37981  -0.37663  -0.37521  -0.37281  -0.37087
  Beta  occ. eigenvalues --   -0.36756  -0.36565  -0.35896  -0.34916  -0.33945
  Beta  occ. eigenvalues --   -0.33257  -0.30668  -0.30406  -0.30263  -0.30084
  Beta  occ. eigenvalues --   -0.30073  -0.29943  -0.29858  -0.29725  -0.29673
  Beta  occ. eigenvalues --   -0.29545  -0.29455  -0.29284  -0.29231  -0.28828
  Beta  occ. eigenvalues --   -0.28614  -0.27664  -0.26524  -0.25198  -0.23826
  Beta  occ. eigenvalues --   -0.22764
  Beta virt. eigenvalues --   -0.03773  -0.02620  -0.01211   0.00256   0.01429
  Beta virt. eigenvalues --    0.02527   0.02753   0.02987   0.03269   0.03602
  Beta virt. eigenvalues --    0.04653   0.05713   0.06970   0.07932   0.08319

 Mulliken charges and spin densities:
               1          2
     1  C   -0.024525   0.000000
     2  C    0.088458  -0.000000
     3  N   -0.214110   0.000000
     4  C    0.121853   0.000000
     5  C    0.108011   0.000000
     6  O   -0.241865  -0.000000
     7  C    0.061158   0.000000
     8  C    0.024633  -0.000000
     9  C   -0.124599  -0.000000
    10  C    0.018580   0.000000
    11  C    0.041690  -0.000000
    12  C   -0.159878   0.000000
    13  S    0.171986  -0.000000
    14  C    0.012674  -0.000000
    15  C    0.081120   0.000000
    16  N   -0.212742  -0.000000
    17  C    0.129374   0.000000
    18  C    0.115452  -0.000000
    19  O   -0.244697   0.000000
    20  C    0.062513  -0.000000
    21  C    0.020744   0.000000
    22  C   -0.126598  -0.000000
    23  C    0.015654  -0.000000
    24  C    0.042334   0.000000
    25  C   -0.159757  -0.000000
    26  S    0.170035   0.000000
    27  C    0.013158  -0.000000
    28  C    0.081618  -0.000000
    29  N   -0.211392   0.000000
    30  C    0.129352   0.000000
    31  C    0.114782  -0.000000
    32  O   -0.245720   0.000000
    33  C    0.062954  -0.000000
    34  C    0.019837   0.000000
    35  C   -0.128522   0.000000
    36  C    0.014767  -0.000000
    37  C    0.038393  -0.000000
    38  C   -0.162249   0.000000
    39  S    0.188056   0.000000
    40  C    0.008951   0.000000
    41  C    0.082215   0.000000
    42  N   -0.210689  -0.000000
    43  C    0.131445  -0.000000
    44  C    0.113578   0.000000
    45  O   -0.245108  -0.000000
    46  C    0.065124  -0.000000
    47  C    0.022706  -0.000000
    48  C   -0.129422   0.000000
    49  C    0.013729  -0.000000
    50  C    0.038574  -0.000000
    51  C   -0.161477   0.000000
    52  S    0.189287  -0.000000
    53  C    0.007251  -0.000000
    54  C    0.080294   0.000000
    55  N   -0.211602  -0.000000
    56  C    0.141918   0.000000
    57  C    0.113490  -0.000000
    58  O   -0.243950   0.000000
    59  C    0.065559   0.000000
    60  C    0.021684   0.000000
    61  C   -0.137810  -0.000000
    62  C   -0.013056   0.000000
    63  C    0.075672  -0.000000
    64  C   -0.132341  -0.000000
    65  S    0.180502  -0.000000
    66  H   -0.013014  -0.000000
    67  H   -0.000898  -0.000000
    68  H    0.049883   0.000000
    69  H    0.049930  -0.000000
    70  H    0.054804  -0.000000
    71  H   -0.007663   0.000000
    72  H   -0.024452   0.000000
    73  H   -0.020951  -0.000000
    74  H   -0.008038   0.000000
    75  H    0.053048   0.000000
    76  H    0.052513  -0.000000
    77  H    0.052916  -0.000000
    78  H   -0.008422  -0.000000
    79  H   -0.024534   0.000000
    80  H   -0.020304   0.000000
    81  H   -0.006008  -0.000000
    82  H    0.051064   0.000000
    83  H    0.052402   0.000000
    84  H    0.052704   0.000000
    85  H   -0.008663  -0.000000
    86  H   -0.026761  -0.000000
    87  H   -0.029083   0.000000
    88  H    0.003559   0.000000
    89  H    0.047588  -0.000000
    90  H    0.051143   0.000000
    91  H    0.051387   0.000000
    92  H   -0.020366   0.000000
    93  H   -0.028073  -0.000000
    94  H   -0.029677   0.000000
    95  H    0.002300  -0.000000
    96  H    0.050436  -0.000000
    97  H    0.051120   0.000000
    98  H    0.046276   0.000000
    99  H   -0.021248   0.000000
   100  H   -0.024891  -0.000000
   101  H   -0.021881  -0.000000
   102  H    0.012804  -0.000000
 Sum of Mulliken charges =  -0.00000   0.00000

 Dipole moment (field-independent basis, Debye):
    X=             10.5509    Y=             -6.1227    Z=              0.9528  Tot=             12.2359
 Quadrupole moment (field-independent basis, Debye-Ang):
   XX=           -200.5592   YY=           -355.7257   ZZ=           -394.6343
   XY=             70.0968   XZ=            -62.9882   YZ=             14.2029

 Normal termination of Gaussian 16 at Thu Jul 23 22:01:57 2020.
