 Gaussian 16, Revision A.03,
 Gaussian 16:  EM64L-G16RevA.03 25-Dec-2016

 ---------------------------------------------------------------
 #P uLC-wPBE/cc-pVDZ iop(3/107=0284000000, 3/108=0284000000) opt
 ---------------------------------------------------------------

 ----------------
 H14 C27 S3 N3 F3
 ----------------
 Symbolic Z-matrix:
 Charge =  0 Multiplicity = 1

 SCF Done:  E(ULC-wPBE) =  -2694.13230305     A.U. after   16 cycles
 SCF Done:  E(ULC-wPBE) =  -2694.18490103     A.U. after   14 cycles
 SCF Done:  E(ULC-wPBE) =  -2694.21480718     A.U. after   15 cycles
 SCF Done:  E(ULC-wPBE) =  -2694.21774719     A.U. after   14 cycles
 SCF Done:  E(ULC-wPBE) =  -2694.21907326     A.U. after   14 cycles
 SCF Done:  E(ULC-wPBE) =  -2694.21964365     A.U. after   14 cycles
 SCF Done:  E(ULC-wPBE) =  -2694.21985563     A.U. after   12 cycles
 SCF Done:  E(ULC-wPBE) =  -2694.21997256     A.U. after   12 cycles
 SCF Done:  E(ULC-wPBE) =  -2694.22001689     A.U. after   12 cycles
 SCF Done:  E(ULC-wPBE) =  -2694.22003655     A.U. after   11 cycles
 SCF Done:  E(ULC-wPBE) =  -2694.22004047     A.U. after   11 cycles
 SCF Done:  E(ULC-wPBE) =  -2694.22004186     A.U. after   11 cycles
 SCF Done:  E(ULC-wPBE) =  -2694.22004288     A.U. after    9 cycles
 SCF Done:  E(ULC-wPBE) =  -2694.22004335     A.U. after    9 cycles
 SCF Done:  E(ULC-wPBE) =  -2694.22004356     A.U. after    8 cycles
 SCF Done:  E(ULC-wPBE) =  -2694.22004379     A.U. after    8 cycles
 SCF Done:  E(ULC-wPBE) =  -2694.22004370     A.U. after    7 cycles
 Optimization completed.
    -- Stationary point found.

                         Standard orientation:
 ---------------------------------------------------------------------
 Center     Atomic      Atomic             Coordinates (Angstroms)
 Number     Number       Type             X           Y           Z
 ---------------------------------------------------------------------
      1          6           0       11.538919    0.261558   -0.341053
      2          6           0       11.068368   -1.033340   -0.106203
      3          6           0        9.703068   -1.268781    0.007949
      4          6           0        8.772799   -0.222887   -0.108437
      5          6           0        9.279899    1.057533   -0.342894
      6          9           0        8.418889    2.095105   -0.462022
      7          6           0       10.638869    1.317294   -0.460731
      8          6           0        7.334898   -0.526359    0.021308
      9          7           0        6.903499   -1.744102    0.244464
     10          6           0        5.541398   -1.774435    0.322566
     11          6           0        4.890164   -0.575441    0.160396
     12         16           0        6.069814    0.663646   -0.108470
     13          6           0        3.443619   -0.304011    0.200150
     14          6           0        2.936721    0.937495    0.621377
     15          6           0        1.569351    1.169203    0.664238
     16          6           0        0.645513    0.177952    0.296588
     17          6           0        1.174221   -1.046810   -0.117802
     18          9           0        0.330390   -2.035285   -0.492413
     19          6           0        2.535503   -1.300528   -0.178672
     20          6           0       -0.795814    0.476469    0.364046
     21          7           0       -1.240573    1.643698    0.762932
     22          6           0       -2.604443    1.681221    0.739487
     23          6           0       -3.243369    0.539192    0.319913
     24         16           0       -2.048843   -0.652390   -0.070040
     25          6           0       -4.689179    0.287670    0.198708
     26          6           0       -5.230962   -0.998797    0.361432
     27          6           0       -6.598214   -1.212123    0.256572
     28          6           0       -7.487208   -0.158715   -0.008740
     29          6           0       -6.924066    1.109730   -0.165904
     30          9           0       -7.731993    2.161203   -0.432019
     31          6           0       -5.561459    1.348262   -0.075295
     32          6           0       -8.931179   -0.441808   -0.107377
     33          7           0       -9.407201   -1.652861    0.047591
     34          6           0      -10.769235   -1.664978   -0.087315
     35          6           0      -11.351334   -0.456070   -0.348356
     36         16           0      -10.146276    0.765572   -0.432042
     37          1           0       12.613426    0.453035   -0.432123
     38          1           0       11.772872   -1.865997   -0.011422
     39          1           0        9.309014   -2.272807    0.191812
     40          1           0       10.965286    2.345202   -0.644657
     41          1           0        5.042941   -2.725788    0.530946
     42          1           0        3.625956    1.728895    0.934606
     43          1           0        1.169040    2.132527    0.993910
     44          1           0        2.868198   -2.276222   -0.544032
     45          1           0       -3.116300    2.589212    1.071783
     46          1           0       -4.571110   -1.842852    0.588949
     47          1           0       -7.026622   -2.210611    0.384830
     48          1           0       -5.198212    2.366361   -0.241900
     49          1           0      -11.308091   -2.611004    0.016945
     50          1           0      -12.408276   -0.226514   -0.493337
 ---------------------------------------------------------------------

 The electronic state is 1-A.
 Alpha  occ. eigenvalues --  -88.27358 -88.27306 -88.26957 -24.46153 -24.45929
 Alpha  occ. eigenvalues --  -24.45868 -14.16493 -14.16421 -14.16037 -10.15926
 Alpha  occ. eigenvalues --  -10.15718 -10.15540 -10.13742 -10.13680 -10.13262
 Alpha  occ. eigenvalues --  -10.10510 -10.10474 -10.10223 -10.10072 -10.09585
 Alpha  occ. eigenvalues --  -10.09581 -10.09482 -10.09278 -10.09245 -10.09243
 Alpha  occ. eigenvalues --  -10.09110 -10.08193 -10.08148 -10.08070 -10.08053
 Alpha  occ. eigenvalues --  -10.07864 -10.07790 -10.07730 -10.07688 -10.07594
 Alpha  occ. eigenvalues --  -10.07261  -7.87894  -7.87841  -7.87498  -5.89740
 Alpha  occ. eigenvalues --   -5.89689  -5.89336  -5.89254  -5.89201  -5.88906
 Alpha  occ. eigenvalues --   -5.88854  -5.88848  -5.88529  -1.30173  -1.29956
 Alpha  occ. eigenvalues --   -1.29855  -1.06253  -1.06190  -1.05683  -0.97934
 Alpha  occ. eigenvalues --   -0.97539  -0.96777  -0.92304  -0.91642  -0.89771
 Alpha  occ. eigenvalues --   -0.89025  -0.88574  -0.87802  -0.85597  -0.85383
 Alpha  occ. eigenvalues --   -0.85115  -0.84356  -0.82551  -0.80886  -0.75687
 Alpha  occ. eigenvalues --   -0.74608  -0.73712  -0.72844  -0.72341  -0.71381
 Alpha  occ. eigenvalues --   -0.68855  -0.68400  -0.68192  -0.66471  -0.66070
 Alpha  occ. eigenvalues --   -0.65981  -0.63550  -0.63162  -0.62779  -0.60649
 Alpha  occ. eigenvalues --   -0.60390  -0.60145  -0.59382  -0.58780  -0.58519
 Alpha  occ. eigenvalues --   -0.57522  -0.57256  -0.57028  -0.56911  -0.56108
 Alpha  occ. eigenvalues --   -0.54826  -0.54016  -0.53810  -0.53444  -0.52947
 Alpha  occ. eigenvalues --   -0.52843  -0.52273  -0.51904  -0.51831  -0.51684
 Alpha  occ. eigenvalues --   -0.51519  -0.50513  -0.50024  -0.49692  -0.48690
 Alpha  occ. eigenvalues --   -0.47865  -0.47514  -0.47073  -0.46929  -0.46414
 Alpha  occ. eigenvalues --   -0.45625  -0.45139  -0.44643  -0.44223  -0.44132
 Alpha  occ. eigenvalues --   -0.43727  -0.41954  -0.40094  -0.37823  -0.37555
 Alpha  occ. eigenvalues --   -0.37320  -0.37010  -0.36800  -0.36608  -0.36476
 Alpha  occ. eigenvalues --   -0.35247  -0.35090  -0.34826  -0.33411  -0.30980
 Alpha  occ. eigenvalues --   -0.28918
 Alpha virt. eigenvalues --   -0.02283  -0.00090   0.02171   0.04998   0.05192
 Alpha virt. eigenvalues --    0.05503   0.06337   0.08308   0.09943   0.10524
 Alpha virt. eigenvalues --    0.10816   0.11212   0.12046   0.13198   0.13706

  Beta  occ. eigenvalues --  -88.27358 -88.27306 -88.26957 -24.46153 -24.45929
  Beta  occ. eigenvalues --  -24.45868 -14.16493 -14.16421 -14.16037 -10.15926
  Beta  occ. eigenvalues --  -10.15718 -10.15540 -10.13742 -10.13680 -10.13262
  Beta  occ. eigenvalues --  -10.10510 -10.10474 -10.10223 -10.10072 -10.09585
  Beta  occ. eigenvalues --  -10.09581 -10.09482 -10.09278 -10.09245 -10.09243
  Beta  occ. eigenvalues --  -10.09110 -10.08193 -10.08148 -10.08070 -10.08053
  Beta  occ. eigenvalues --  -10.07864 -10.07790 -10.07730 -10.07688 -10.07594
  Beta  occ. eigenvalues --  -10.07261  -7.87894  -7.87841  -7.87498  -5.89740
  Beta  occ. eigenvalues --   -5.89689  -5.89336  -5.89254  -5.89201  -5.88906
  Beta  occ. eigenvalues --   -5.88854  -5.88848  -5.88529  -1.30173  -1.29956
  Beta  occ. eigenvalues --   -1.29855  -1.06253  -1.06190  -1.05683  -0.97934
  Beta  occ. eigenvalues --   -0.97539  -0.96777  -0.92304  -0.91642  -0.89771
  Beta  occ. eigenvalues --   -0.89025  -0.88574  -0.87802  -0.85597  -0.85383
  Beta  occ. eigenvalues --   -0.85115  -0.84356  -0.82551  -0.80886  -0.75687
  Beta  occ. eigenvalues --   -0.74608  -0.73712  -0.72844  -0.72341  -0.71381
  Beta  occ. eigenvalues --   -0.68855  -0.68400  -0.68192  -0.66471  -0.66070
  Beta  occ. eigenvalues --   -0.65981  -0.63550  -0.63162  -0.62779  -0.60649
  Beta  occ. eigenvalues --   -0.60390  -0.60145  -0.59382  -0.58780  -0.58519
  Beta  occ. eigenvalues --   -0.57522  -0.57256  -0.57028  -0.56911  -0.56108
  Beta  occ. eigenvalues --   -0.54826  -0.54016  -0.53810  -0.53444  -0.52947
  Beta  occ. eigenvalues --   -0.52843  -0.52273  -0.51904  -0.51831  -0.51684
  Beta  occ. eigenvalues --   -0.51519  -0.50513  -0.50024  -0.49692  -0.48690
  Beta  occ. eigenvalues --   -0.47865  -0.47514  -0.47073  -0.46929  -0.46414
  Beta  occ. eigenvalues --   -0.45625  -0.45139  -0.44643  -0.44223  -0.44132
  Beta  occ. eigenvalues --   -0.43727  -0.41954  -0.40094  -0.37823  -0.37555
  Beta  occ. eigenvalues --   -0.37320  -0.37010  -0.36800  -0.36608  -0.36476
  Beta  occ. eigenvalues --   -0.35247  -0.35090  -0.34826  -0.33411  -0.30980
  Beta  occ. eigenvalues --   -0.28918
  Beta virt. eigenvalues --   -0.02283  -0.00090   0.02171   0.04998   0.05192
  Beta virt. eigenvalues --    0.05503   0.06337   0.08308   0.09943   0.10524
  Beta virt. eigenvalues --    0.10816   0.11212   0.12046   0.13198   0.13706

 Mulliken charges and spin densities:
               1          2
     1  C    0.028936  -0.000000
     2  C    0.032170  -0.000000
     3  C    0.041470   0.000000
     4  C   -0.040838  -0.000000
     5  C    0.069126   0.000000
     6  F   -0.127278  -0.000000
     7  C    0.019684  -0.000000
     8  C    0.014729   0.000000
     9  N   -0.180734   0.000000
    10  C    0.130298  -0.000000
    11  C   -0.217950   0.000000
    12  S    0.173226  -0.000000
    13  C    0.062160  -0.000000
    14  C    0.017320   0.000000
    15  C    0.051565  -0.000000
    16  C   -0.032155   0.000000
    17  C    0.078162  -0.000000
    18  F   -0.124456   0.000000
    19  C    0.006937   0.000000
    20  C    0.011432   0.000000
    21  N   -0.181687  -0.000000
    22  C    0.130329   0.000000
    23  C   -0.216576  -0.000000
    24  S    0.174281   0.000000
    25  C    0.060565   0.000000
    26  C    0.016201  -0.000000
    27  C    0.050809  -0.000000
    28  C   -0.025606  -0.000000
    29  C    0.080149   0.000000
    30  F   -0.125360   0.000000
    31  C    0.005501  -0.000000
    32  C   -0.008038  -0.000000
    33  N   -0.186152  -0.000000
    34  C    0.123183  -0.000000
    35  C   -0.179447   0.000000
    36  S    0.174306   0.000000
    37  H    0.002476   0.000000
    38  H   -0.000723   0.000000
    39  H    0.002322   0.000000
    40  H    0.011162  -0.000000
    41  H    0.011203  -0.000000
    42  H   -0.001741   0.000000
    43  H    0.004006  -0.000000
    44  H    0.003779   0.000000
    45  H    0.011561   0.000000
    46  H   -0.002512  -0.000000
    47  H    0.003948  -0.000000
    48  H    0.003061  -0.000000
    49  H    0.009683   0.000000
    50  H    0.035513  -0.000000
 Sum of Mulliken charges =  -0.00000  -0.00000

 Dipole moment (field-independent basis, Debye):
    X=              1.1761    Y=              0.1738    Z=             -0.1013  Tot=              1.1932
 Quadrupole moment (field-independent basis, Debye-Ang):
   XX=           -161.7134   YY=           -215.9690   ZZ=           -228.5065
   XY=              2.1063   XZ=             -0.2902   YZ=             -0.0999

 Normal termination of Gaussian 16 at Fri Jul 24 22:29:47 2020.
