 Gaussian 16, Revision A.03,
 Gaussian 16:  EM64L-G16RevA.03 25-Dec-2016

 ---------------------------------------------------------------
 #P uLC-wPBE/cc-pVDZ iop(3/107=0288000000, 3/108=0288000000) opt
 ---------------------------------------------------------------

 ----------
 H37 C60 F5
 ----------
 Symbolic Z-matrix:
 Charge =  0 Multiplicity = 1

 SCF Done:  E(ULC-wPBE) =  -2805.69510318     A.U. after   16 cycles
 SCF Done:  E(ULC-wPBE) =  -2805.77742548     A.U. after   15 cycles
 SCF Done:  E(ULC-wPBE) =  -2805.84506587     A.U. after   15 cycles
 SCF Done:  E(ULC-wPBE) =  -2805.86272748     A.U. after   15 cycles
 SCF Done:  E(ULC-wPBE) =  -2805.86734454     A.U. after   14 cycles
 SCF Done:  E(ULC-wPBE) =  -2805.86793752     A.U. after   13 cycles
 SCF Done:  E(ULC-wPBE) =  -2805.86808499     A.U. after   13 cycles
 SCF Done:  E(ULC-wPBE) =  -2805.86814223     A.U. after   13 cycles
 SCF Done:  E(ULC-wPBE) =  -2805.86815195     A.U. after   11 cycles
 SCF Done:  E(ULC-wPBE) =  -2805.86815311     A.U. after   10 cycles
 SCF Done:  E(ULC-wPBE) =  -2805.86815455     A.U. after   10 cycles
 SCF Done:  E(ULC-wPBE) =  -2805.86815496     A.U. after    7 cycles
 SCF Done:  E(ULC-wPBE) =  -2805.86815504     A.U. after    6 cycles
 SCF Done:  E(ULC-wPBE) =  -2805.86815502     A.U. after    5 cycles
 Optimization completed.
    -- Stationary point found.

                         Standard orientation:
 ---------------------------------------------------------------------
 Center     Atomic      Atomic             Coordinates (Angstroms)
 Number     Number       Type             X           Y           Z
 ---------------------------------------------------------------------
      1          6           0       20.946434   -0.577251    0.049243
      2          6           0       20.247093   -0.865858   -1.123079
      3          6           0       18.856270   -0.786843   -1.150840
      4          6           0       18.139163   -0.422513   -0.002048
      5          6           0       18.852207   -0.130873    1.169217
      6          6           0       20.243906   -0.207562    1.195671
      7          6           0       16.652025   -0.367601    0.000010
      8          6           0       15.901499   -0.907442    1.054150
      9          6           0       14.510942   -0.850122    1.074514
     10          6           0       13.803697   -0.240389    0.029042
     11          6           0       14.535081    0.305680   -1.032147
     12          6           0       15.920549    0.232832   -1.029571
     13          9           0       16.578438    0.774317   -2.079172
     14          6           0       12.317450   -0.172984    0.039467
     15          6           0       11.549770   -1.269354    0.453092
     16          6           0       10.159083   -1.205168    0.462613
     17          6           0        9.486452   -0.043528    0.060269
     18          6           0       10.254409    1.056509   -0.346925
     19          6           0       11.644178    0.989832   -0.359783
     20          6           0        7.999864   -0.007256    0.046226
     21          6           0        7.246053   -1.086739   -0.436586
     22          6           0        5.854432   -1.070978   -0.439744
     23          6           0        5.148945    0.038696    0.046445
     24          6           0        5.883647    1.126936    0.531555
     25          6           0        7.270304    1.086964    0.522118
     26          9           0        7.931798    2.157376    1.016256
     27          6           0        3.661602    0.067348    0.045864
     28          6           0        2.919832   -1.067320    0.399426
     29          6           0        1.527974   -1.039846    0.398972
     30          6           0        0.828000    0.121072    0.043431
     31          6           0        1.569926    1.258610   -0.304743
     32          6           0        2.961023    1.229592   -0.305079
     33          6           0       -0.658747    0.118822    0.016540
     34          6           0       -1.379314   -0.959804   -0.516365
     35          6           0       -2.770744   -0.980710   -0.532173
     36          6           0       -3.509723    0.089471   -0.008583
     37          6           0       -2.808557    1.176206    0.526886
     38          6           0       -1.421309    1.173283    0.529070
     39          9           0       -0.792945    2.239974    1.072028
     40          6           0       -4.997230    0.079060   -0.022500
     41          6           0       -5.711634   -1.087834    0.278592
     42          6           0       -7.103676   -1.096800    0.265648
     43          6           0       -7.831112    0.058609   -0.050590
     44          6           0       -7.116605    1.228125   -0.346236
     45          6           0       -5.725287    1.235629   -0.333999
     46          6           0       -9.316978    0.018500   -0.092212
     47          6           0      -10.003990   -1.057290   -0.673095
     48          6           0      -11.394160   -1.114108   -0.703468
     49          6           0      -12.165928   -0.084498   -0.146844
     50          6           0      -11.498576    0.998652    0.436894
     51          6           0      -10.111806    1.031998    0.452805
     52          9           0       -9.517005    2.093159    1.042605
     53          6           0      -13.652525   -0.133047   -0.176899
     54          6           0      -14.339213   -1.328390    0.076916
     55          6           0      -15.729573   -1.377943    0.051432
     56          6           0      -16.483755   -0.232008   -0.236902
     57          6           0      -15.797960    0.963944   -0.487262
     58          6           0      -14.406935    1.013447   -0.457360
     59          6           0      -17.969638   -0.271141   -0.307053
     60          6           0      -18.665422    0.364776   -1.345922
     61          6           0      -20.057195    0.347982   -1.413348
     62          6           0      -20.793276   -0.312311   -0.429465
     63          6           0      -20.132295   -0.954143    0.615776
     64          6           0      -18.744439   -0.924047    0.657644
     65          9           0      -18.128615   -1.548884    1.686297
     66          1           0       22.040144   -0.637666    0.068033
     67          1           0       20.790424   -1.157995   -2.028556
     68          1           0       18.316457   -1.016953   -2.074349
     69          1           0       18.307386    0.177916    2.068610
     70          1           0       20.783322    0.029843    2.119294
     71          1           0       16.433400   -1.396224    1.877828
     72          1           0       13.965311   -1.270657    1.925618
     73          1           0       14.040235    0.780227   -1.885211
     74          1           0       12.048843   -2.195846    0.758061
     75          1           0        9.582329   -2.073601    0.800136
     76          1           0        9.756429    1.979448   -0.658329
     77          1           0       12.220722    1.868868   -0.668914
     78          1           0        7.776251   -1.953792   -0.845665
     79          1           0        5.305770   -1.922976   -0.854433
     80          1           0        5.391062    2.009986    0.950260
     81          1           0        3.440799   -1.980172    0.708862
     82          1           0        0.971841   -1.932720    0.705880
     83          1           0        1.050333    2.177089   -0.593135
     84          1           0        3.516055    2.124463   -0.608048
     85          1           0       -0.822647   -1.795316   -0.954866
     86          1           0       -3.292967   -1.829418   -0.985899
     87          1           0       -3.328174    2.028246    0.976045
     88          1           0       -5.169362   -1.998349    0.556735
     89          1           0       -7.638523   -2.015433    0.531609
     90          1           0       -7.657843    2.143418   -0.603169
     91          1           0       -5.191596    2.156110   -0.595808
     92          1           0       -9.421552   -1.860541   -1.137628
     93          1           0      -11.889579   -1.958338   -1.194070
     94          1           0      -12.044447    1.818811    0.913429
     95          1           0      -13.773973   -2.235027    0.319833
     96          1           0      -16.239142   -2.323274    0.260065
     97          1           0      -16.365023    1.877153   -0.699847
     98          1           0      -13.896705    1.959073   -0.672069
     99          1           0      -18.088402    0.869282   -2.128862
    100          1           0      -20.568350    0.848435   -2.242167
    101          1           0      -21.887347   -0.332030   -0.473874
    102          1           0      -20.671772   -1.478758    1.410220
 ---------------------------------------------------------------------

 The electronic state is 1-A.
 Alpha  occ. eigenvalues --  -24.44656 -24.44611 -24.44598 -24.44526 -24.44295
 Alpha  occ. eigenvalues --  -10.14801 -10.14762 -10.14727 -10.14680 -10.14446
 Alpha  occ. eigenvalues --  -10.08644 -10.08609 -10.08534 -10.08380 -10.08355
 Alpha  occ. eigenvalues --  -10.08336 -10.08322 -10.08246 -10.08219 -10.08211
 Alpha  occ. eigenvalues --  -10.08172 -10.08059 -10.08051 -10.08034 -10.07982
 Alpha  occ. eigenvalues --  -10.07974 -10.07857 -10.07702 -10.07693 -10.07673
 Alpha  occ. eigenvalues --  -10.07666 -10.07633 -10.07591 -10.07349 -10.07336
 Alpha  occ. eigenvalues --  -10.07281 -10.07240 -10.07169 -10.07119 -10.07112
 Alpha  occ. eigenvalues --  -10.07069 -10.07068 -10.07055 -10.07045 -10.07030
 Alpha  occ. eigenvalues --  -10.07010 -10.07006 -10.06996 -10.06980 -10.06979
 Alpha  occ. eigenvalues --  -10.06960 -10.06940 -10.06937 -10.06927 -10.06926
 Alpha  occ. eigenvalues --  -10.06883 -10.06878 -10.06802 -10.06764 -10.06726
 Alpha  occ. eigenvalues --  -10.06487 -10.06428 -10.06382 -10.06345 -10.06306
 Alpha  occ. eigenvalues --   -1.28746  -1.28703  -1.28685  -1.28619  -1.28386
 Alpha  occ. eigenvalues --   -0.98024  -0.97833  -0.97573  -0.97232  -0.96915
 Alpha  occ. eigenvalues --   -0.96235  -0.95713  -0.95148  -0.94621  -0.94225
 Alpha  occ. eigenvalues --   -0.90821  -0.90025  -0.89009  -0.87855  -0.86683
 Alpha  occ. eigenvalues --   -0.85317  -0.85243  -0.85116  -0.85027  -0.84850
 Alpha  occ. eigenvalues --   -0.84734  -0.84452  -0.84300  -0.84206  -0.84111
 Alpha  occ. eigenvalues --   -0.83837  -0.83645  -0.82241  -0.80869  -0.79785
 Alpha  occ. eigenvalues --   -0.75581  -0.74432  -0.73373  -0.73146  -0.72991
 Alpha  occ. eigenvalues --   -0.72586  -0.72088  -0.71860  -0.71180  -0.70825
 Alpha  occ. eigenvalues --   -0.70283  -0.69937  -0.69453  -0.69019  -0.68929
 Alpha  occ. eigenvalues --   -0.68633  -0.68357  -0.67902  -0.67653  -0.67479
 Alpha  occ. eigenvalues --   -0.64460  -0.64280  -0.64017  -0.63675  -0.63399
 Alpha  occ. eigenvalues --   -0.61717  -0.61099  -0.60464  -0.60234  -0.60152
 Alpha  occ. eigenvalues --   -0.59576  -0.59408  -0.59030  -0.58637  -0.58376
 Alpha  occ. eigenvalues --   -0.57918  -0.57687  -0.57227  -0.56591  -0.56333
 Alpha  occ. eigenvalues --   -0.56160  -0.56064  -0.56002  -0.55936  -0.55515
 Alpha  occ. eigenvalues --   -0.55179  -0.54841  -0.54615  -0.54542  -0.54154
 Alpha  occ. eigenvalues --   -0.53856  -0.53801  -0.53547  -0.53362  -0.53123
 Alpha  occ. eigenvalues --   -0.52990  -0.52890  -0.52794  -0.52683  -0.52502
 Alpha  occ. eigenvalues --   -0.51671  -0.51362  -0.51263  -0.51212  -0.51054
 Alpha  occ. eigenvalues --   -0.50735  -0.50714  -0.49764  -0.49338  -0.49159
 Alpha  occ. eigenvalues --   -0.48791  -0.48749  -0.48516  -0.48331  -0.48143
 Alpha  occ. eigenvalues --   -0.48010  -0.47820  -0.47591  -0.47272  -0.47003
 Alpha  occ. eigenvalues --   -0.46632  -0.46509  -0.46226  -0.46018  -0.45988
 Alpha  occ. eigenvalues --   -0.45795  -0.45471  -0.45316  -0.45101  -0.44984
 Alpha  occ. eigenvalues --   -0.44092  -0.43714  -0.43210  -0.43049  -0.43011
 Alpha  occ. eigenvalues --   -0.42656  -0.42554  -0.42439  -0.42114  -0.41838
 Alpha  occ. eigenvalues --   -0.41557  -0.39512  -0.38791  -0.37835  -0.36753
 Alpha  occ. eigenvalues --   -0.35579  -0.34982  -0.34978  -0.34930  -0.34811
 Alpha  occ. eigenvalues --   -0.34507  -0.34336  -0.34297  -0.34288  -0.34259
 Alpha  occ. eigenvalues --   -0.34055  -0.33397  -0.32293  -0.31049  -0.29993
 Alpha  occ. eigenvalues --   -0.29342
 Alpha virt. eigenvalues --    0.00073   0.00920   0.02145   0.03616   0.05094
 Alpha virt. eigenvalues --    0.05714   0.05721   0.05769   0.05894   0.05949
 Alpha virt. eigenvalues --    0.05983   0.06047   0.06136   0.06280   0.06542

  Beta  occ. eigenvalues --  -24.44656 -24.44611 -24.44598 -24.44526 -24.44295
  Beta  occ. eigenvalues --  -10.14801 -10.14762 -10.14727 -10.14680 -10.14446
  Beta  occ. eigenvalues --  -10.08644 -10.08609 -10.08534 -10.08380 -10.08355
  Beta  occ. eigenvalues --  -10.08336 -10.08322 -10.08246 -10.08219 -10.08211
  Beta  occ. eigenvalues --  -10.08172 -10.08059 -10.08051 -10.08034 -10.07982
  Beta  occ. eigenvalues --  -10.07974 -10.07857 -10.07702 -10.07693 -10.07673
  Beta  occ. eigenvalues --  -10.07666 -10.07633 -10.07591 -10.07349 -10.07336
  Beta  occ. eigenvalues --  -10.07281 -10.07240 -10.07169 -10.07119 -10.07112
  Beta  occ. eigenvalues --  -10.07069 -10.07068 -10.07055 -10.07045 -10.07030
  Beta  occ. eigenvalues --  -10.07010 -10.07006 -10.06996 -10.06980 -10.06979
  Beta  occ. eigenvalues --  -10.06960 -10.06940 -10.06937 -10.06927 -10.06926
  Beta  occ. eigenvalues --  -10.06883 -10.06878 -10.06802 -10.06764 -10.06726
  Beta  occ. eigenvalues --  -10.06487 -10.06428 -10.06382 -10.06345 -10.06306
  Beta  occ. eigenvalues --   -1.28746  -1.28703  -1.28685  -1.28619  -1.28386
  Beta  occ. eigenvalues --   -0.98024  -0.97833  -0.97573  -0.97232  -0.96915
  Beta  occ. eigenvalues --   -0.96235  -0.95713  -0.95148  -0.94621  -0.94225
  Beta  occ. eigenvalues --   -0.90821  -0.90025  -0.89009  -0.87855  -0.86683
  Beta  occ. eigenvalues --   -0.85317  -0.85243  -0.85116  -0.85027  -0.84850
  Beta  occ. eigenvalues --   -0.84734  -0.84452  -0.84300  -0.84206  -0.84111
  Beta  occ. eigenvalues --   -0.83837  -0.83645  -0.82241  -0.80869  -0.79785
  Beta  occ. eigenvalues --   -0.75581  -0.74432  -0.73373  -0.73146  -0.72991
  Beta  occ. eigenvalues --   -0.72586  -0.72088  -0.71860  -0.71180  -0.70825
  Beta  occ. eigenvalues --   -0.70283  -0.69937  -0.69453  -0.69019  -0.68929
  Beta  occ. eigenvalues --   -0.68633  -0.68357  -0.67902  -0.67653  -0.67479
  Beta  occ. eigenvalues --   -0.64460  -0.64280  -0.64017  -0.63675  -0.63399
  Beta  occ. eigenvalues --   -0.61717  -0.61099  -0.60464  -0.60234  -0.60152
  Beta  occ. eigenvalues --   -0.59576  -0.59408  -0.59030  -0.58637  -0.58376
  Beta  occ. eigenvalues --   -0.57918  -0.57687  -0.57227  -0.56591  -0.56333
  Beta  occ. eigenvalues --   -0.56160  -0.56064  -0.56002  -0.55936  -0.55515
  Beta  occ. eigenvalues --   -0.55179  -0.54841  -0.54615  -0.54542  -0.54154
  Beta  occ. eigenvalues --   -0.53856  -0.53801  -0.53547  -0.53362  -0.53123
  Beta  occ. eigenvalues --   -0.52990  -0.52890  -0.52794  -0.52683  -0.52502
  Beta  occ. eigenvalues --   -0.51671  -0.51362  -0.51263  -0.51212  -0.51054
  Beta  occ. eigenvalues --   -0.50735  -0.50714  -0.49764  -0.49338  -0.49159
  Beta  occ. eigenvalues --   -0.48791  -0.48749  -0.48516  -0.48331  -0.48143
  Beta  occ. eigenvalues --   -0.48010  -0.47820  -0.47591  -0.47272  -0.47003
  Beta  occ. eigenvalues --   -0.46632  -0.46509  -0.46226  -0.46018  -0.45988
  Beta  occ. eigenvalues --   -0.45795  -0.45471  -0.45316  -0.45101  -0.44984
  Beta  occ. eigenvalues --   -0.44092  -0.43714  -0.43210  -0.43049  -0.43011
  Beta  occ. eigenvalues --   -0.42656  -0.42554  -0.42439  -0.42114  -0.41838
  Beta  occ. eigenvalues --   -0.41557  -0.39512  -0.38791  -0.37835  -0.36753
  Beta  occ. eigenvalues --   -0.35579  -0.34982  -0.34978  -0.34930  -0.34811
  Beta  occ. eigenvalues --   -0.34507  -0.34336  -0.34297  -0.34288  -0.34259
  Beta  occ. eigenvalues --   -0.34055  -0.33397  -0.32293  -0.31049  -0.29993
  Beta  occ. eigenvalues --   -0.29342
  Beta virt. eigenvalues --    0.00073   0.00920   0.02145   0.03616   0.05094
  Beta virt. eigenvalues --    0.05714   0.05721   0.05769   0.05894   0.05949
  Beta virt. eigenvalues --    0.05983   0.06047   0.06136   0.06280   0.06542

 Mulliken charges and spin densities:
               1          2
     1  C    0.012318   0.000000
     2  C    0.018983  -0.000000
     3  C    0.017131  -0.000000
     4  C    0.003097   0.000000
     5  C    0.001845  -0.000000
     6  C    0.019683  -0.000000
     7  C   -0.041245  -0.000000
     8  C    0.021325  -0.000000
     9  C    0.011957  -0.000000
    10  C    0.016820   0.000000
    11  C    0.005602   0.000000
    12  C    0.100191  -0.000000
    13  F   -0.127271   0.000000
    14  C    0.009144  -0.000000
    15  C    0.008794   0.000000
    16  C    0.013422  -0.000000
    17  C    0.012159  -0.000000
    18  C    0.029466   0.000000
    19  C    0.008906  -0.000000
    20  C   -0.038663  -0.000000
    21  C    0.018294   0.000000
    22  C    0.011307   0.000000
    23  C    0.019183  -0.000000
    24  C    0.005358   0.000000
    25  C    0.097281  -0.000000
    26  F   -0.126824  -0.000000
    27  C    0.011835  -0.000000
    28  C    0.008082  -0.000000
    29  C    0.012159   0.000000
    30  C    0.015240  -0.000000
    31  C    0.028406   0.000000
    32  C    0.007764  -0.000000
    33  C   -0.038522   0.000000
    34  C    0.017988  -0.000000
    35  C    0.011584  -0.000000
    36  C    0.019291   0.000000
    37  C    0.005627  -0.000000
    38  C    0.097093  -0.000000
    39  F   -0.126933  -0.000000
    40  C    0.011757  -0.000000
    41  C    0.008120  -0.000000
    42  C    0.012131  -0.000000
    43  C    0.015355   0.000000
    44  C    0.028362  -0.000000
    45  C    0.007784   0.000000
    46  C   -0.038500  -0.000000
    47  C    0.017761   0.000000
    48  C    0.012126  -0.000000
    49  C    0.019731   0.000000
    50  C    0.005956  -0.000000
    51  C    0.096919   0.000000
    52  F   -0.127152  -0.000000
    53  C    0.008688  -0.000000
    54  C    0.008091  -0.000000
    55  C    0.031348   0.000000
    56  C    0.011949  -0.000000
    57  C    0.015331   0.000000
    58  C    0.008603  -0.000000
    59  C   -0.046915   0.000000
    60  C    0.009633   0.000000
    61  C    0.022563  -0.000000
    62  C    0.023697   0.000000
    63  C    0.010602  -0.000000
    64  C    0.090818   0.000000
    65  F   -0.127895   0.000000
    66  H   -0.008095  -0.000000
    67  H   -0.006419  -0.000000
    68  H   -0.013061  -0.000000
    69  H   -0.014236  -0.000000
    70  H   -0.007078  -0.000000
    71  H   -0.007200  -0.000000
    72  H   -0.014084  -0.000000
    73  H   -0.001156  -0.000000
    74  H   -0.013487   0.000000
    75  H   -0.013498   0.000000
    76  H   -0.011161   0.000000
    77  H   -0.011406   0.000000
    78  H   -0.006898   0.000000
    79  H   -0.014497   0.000000
    80  H    0.001159   0.000000
    81  H   -0.013551  -0.000000
    82  H   -0.013066   0.000000
    83  H   -0.011138   0.000000
    84  H   -0.012100   0.000000
    85  H   -0.007301   0.000000
    86  H   -0.014415   0.000000
    87  H    0.001320   0.000000
    88  H   -0.013463   0.000000
    89  H   -0.012723  -0.000000
    90  H   -0.011284  -0.000000
    91  H   -0.012182   0.000000
    92  H   -0.007139   0.000000
    93  H   -0.013575   0.000000
    94  H    0.000493   0.000000
    95  H   -0.012639   0.000000
    96  H   -0.011237   0.000000
    97  H   -0.012270   0.000000
    98  H   -0.012935  -0.000000
    99  H   -0.006672  -0.000000
   100  H   -0.005111   0.000000
   101  H   -0.000197   0.000000
   102  H    0.007564   0.000000
 Sum of Mulliken charges =  -0.00000   0.00000

 Dipole moment (field-independent basis, Debye):
    X=             -3.4207    Y=             -2.5224    Z=             -1.4484  Tot=              4.4902
 Quadrupole moment (field-independent basis, Debye-Ang):
   XX=           -298.9741   YY=           -350.2234   ZZ=           -370.4324
   XY=            -16.7169   XZ=             31.2557   YZ=             -5.2200

 Normal termination of Gaussian 16 at Thu Jul 23 12:47:47 2020.
