 Gaussian 16, Revision A.03,
 Gaussian 16:  EM64L-G16RevA.03 25-Dec-2016

 ---------------------------------------------------------------
 #P uLC-wPBE/cc-pVDZ iop(3/107=0298100000, 3/108=0298100000) opt
 ---------------------------------------------------------------

 ----------------
 H30 C63 S7 N7 F7
 ----------------
 Symbolic Z-matrix:
 Charge =  0 Multiplicity = 1

 SCF Done:  E(ULC-wPBE) =  -6284.64135613     A.U. after   16 cycles
 SCF Done:  E(ULC-wPBE) =  -6284.74550910     A.U. after   14 cycles
 SCF Done:  E(ULC-wPBE) =  -6284.84663105     A.U. after   14 cycles
 SCF Done:  E(ULC-wPBE) =  -6284.87329863     A.U. after   14 cycles
 SCF Done:  E(ULC-wPBE) =  -6284.88108227     A.U. after   15 cycles
 SCF Done:  E(ULC-wPBE) =  -6284.88373500     A.U. after   15 cycles
 SCF Done:  E(ULC-wPBE) =  -6284.88434423     A.U. after   15 cycles
 SCF Done:  E(ULC-wPBE) =  -6284.88471958     A.U. after   12 cycles
 SCF Done:  E(ULC-wPBE) =  -6284.88480907     A.U. after   13 cycles
 SCF Done:  E(ULC-wPBE) =  -6284.88484552     A.U. after   11 cycles
 SCF Done:  E(ULC-wPBE) =  -6284.88486117     A.U. after   11 cycles
 SCF Done:  E(ULC-wPBE) =  -6284.88486210     A.U. after   10 cycles
 SCF Done:  E(ULC-wPBE) =  -6284.88486237     A.U. after    8 cycles
 SCF Done:  E(ULC-wPBE) =  -6284.88486282     A.U. after   10 cycles
 SCF Done:  E(ULC-wPBE) =  -6284.88486307     A.U. after   10 cycles
 SCF Done:  E(ULC-wPBE) =  -6284.88486350     A.U. after    8 cycles
 SCF Done:  E(ULC-wPBE) =  -6284.88486352     A.U. after   10 cycles
 SCF Done:  E(ULC-wPBE) =  -6284.88486355     A.U. after    7 cycles
 SCF Done:  E(ULC-wPBE) =  -6284.88486357     A.U. after    7 cycles
 SCF Done:  E(ULC-wPBE) =  -6284.88486350     A.U. after    6 cycles
 Optimization completed.
    -- Stationary point found.

                         Standard orientation:
 ---------------------------------------------------------------------
 Center     Atomic      Atomic             Coordinates (Angstroms)
 Number     Number       Type             X           Y           Z
 ---------------------------------------------------------------------
      1          6           0       23.670645   -7.454990    0.406817
      2          6           0       22.315473   -7.459813    0.085342
      3          6           0       21.628770   -6.252126    0.053881
      4          6           0       22.321728   -5.070797    0.359688
      5          7           0       23.626846   -5.059656    0.670583
      6          6           0       24.270802   -6.227812    0.683409
      7          6           0       21.643482   -3.761355    0.353991
      8          6           0       22.191383   -2.501464    0.293284
      9          9           0       23.498658   -2.252887    0.198644
     10          6           0       21.251492   -1.437626    0.303644
     11          6           0       19.959150   -1.892493    0.376388
     12         16           0       19.914713   -3.622771    0.444050
     13          6           0       18.721288   -1.098355    0.414183
     14          6           0       18.686927    0.176598    0.993049
     15          6           0       17.504798    0.902227    0.996393
     16          6           0       16.360718    0.327270    0.424087
     17          7           0       16.377171   -0.895263   -0.131911
     18          6           0       17.521563   -1.571889   -0.135608
     19          6           0       15.061724    1.008666    0.389597
     20          6           0       14.673838    2.243917    0.848855
     21          9           0       15.511783    3.106597    1.453185
     22          6           0       13.312612    2.569661    0.635030
     23          6           0       12.650225    1.549036   -0.004789
     24         16           0       13.700056    0.208511   -0.324965
     25          6           0       11.232756    1.508947   -0.398400
     26          6           0       10.783261    0.818946   -1.530929
     27          6           0        9.433819    0.825161   -1.853784
     28          6           0        8.549284    1.538308   -1.032491
     29          7           0        8.964698    2.200913    0.060204
     30          6           0       10.259068    2.174521    0.360731
     31          6           0        7.107923    1.616305   -1.295462
     32          6           0        6.339918    1.082136   -2.301458
     33          9           0        6.843987    0.337370   -3.302777
     34          6           0        4.956821    1.376439   -2.228960
     35          6           0        4.669582    2.156192   -1.133809
     36         16           0        6.092222    2.507403   -0.209513
     37          6           0        3.353553    2.665942   -0.716702
     38          6           0        3.194272    3.886793   -0.049611
     39          6           0        1.925522    4.316822    0.311534
     40          6           0        0.824686    3.511851   -0.013842
     41          7           0        0.961871    2.335836   -0.649326
     42          6           0        2.185678    1.934206   -0.977221
     43          6           0       -0.556176    3.884024    0.313650
     44          6           0       -1.071316    4.992110    0.941456
     45          9           0       -0.312684    6.009482    1.389446
     46          6           0       -2.479975    5.008028    1.083432
     47          6           0       -3.047954    3.876606    0.547722
     48         16           0       -1.850399    2.811719   -0.110986
     49          6           0       -4.476564    3.526712    0.502175
     50          6           0       -5.035236    2.771553   -0.535948
     51          6           0       -6.392362    2.487668   -0.520965
     52          6           0       -7.178796    2.965302    0.538531
     53          7           0       -6.655393    3.685202    1.543379
     54          6           0       -5.352073    3.946305    1.514501
     55          6           0       -8.625159    2.701435    0.606064
     56          6           0       -9.578814    3.291432    1.403736
     57          9           0       -9.330139    4.267849    2.276873
     58          6           0      -10.900164    2.807171    1.218030
     59          6           0      -10.958779    1.825169    0.261790
     60         16           0       -9.387467    1.499422   -0.390501
     61          6           0      -12.138677    1.079342   -0.202429
     62          6           0      -12.270066    0.613650   -1.516313
     63          6           0      -13.412973   -0.076170   -1.894230
     64          6           0      -14.420226   -0.281888   -0.940714
     65          7           0      -14.306121    0.154820    0.324954
     66          6           0      -13.199896    0.804032    0.672541
     67          6           0      -15.670802   -0.985792   -1.245055
     68          6           0      -16.128200   -1.557945   -2.407358
     69          9           0      -15.425305   -1.567942   -3.555485
     70          6           0      -17.407235   -2.158516   -2.323543
     71          6           0      -17.933826   -2.037647   -1.059270
     72         16           0      -16.861163   -1.183916   -0.000456
     73          6           0      -19.235390   -2.533411   -0.583173
     74          6           0      -20.343552   -2.618960   -1.435277
     75          6           0      -21.550020   -3.104671   -0.953239
     76          6           0      -21.630969   -3.490415    0.392870
     77          7           0      -20.577860   -3.411384    1.222570
     78          6           0      -19.426505   -2.952971    0.740963
     79          6           0      -22.865376   -4.005594    0.998072
     80          6           0      -24.112707   -4.219075    0.462249
     81          9           0      -24.422105   -3.964200   -0.823747
     82          6           0      -25.077593   -4.735921    1.365183
     83          6           0      -24.528517   -4.910451    2.605897
     84         16           0      -22.873714   -4.455396    2.672766
     85          1           0       24.253987   -8.380009    0.441151
     86          1           0       21.796653   -8.396032   -0.146809
     87          1           0       20.567972   -6.223080   -0.215465
     88          1           0       25.338446   -6.178096    0.936974
     89          1           0       21.541526   -0.387745    0.227543
     90          1           0       19.586615    0.593576    1.457651
     91          1           0       17.458073    1.896169    1.445603
     92          1           0       17.491661   -2.558145   -0.619097
     93          1           0       12.872066    3.527098    0.919424
     94          1           0       11.495608    0.286174   -2.170759
     95          1           0        9.065671    0.295623   -2.734606
     96          1           0       10.548635    2.706580    1.276558
     97          1           0        4.232122    1.044805   -2.974937
     98          1           0        4.066930    4.510067    0.175497
     99          1           0        1.781919    5.267077    0.829373
    100          1           0        2.251975    0.955242   -1.470080
    101          1           0       -3.029314    5.836423    1.534645
    102          1           0       -4.410336    2.423880   -1.366079
    103          1           0       -6.841454    1.914658   -1.338292
    104          1           0       -4.962896    4.517759    2.367976
    105          1           0      -11.760984    3.206196    1.758035
    106          1           0      -11.479933    0.805312   -2.250994
    107          1           0      -13.534470   -0.443676   -2.914983
    108          1           0      -13.139049    1.118921    1.722643
    109          1           0      -17.884119   -2.675633   -3.158396
    110          1           0      -20.264050   -2.286850   -2.475851
    111          1           0      -22.425605   -3.175718   -1.601393
    112          1           0      -18.588715   -2.925456    1.451393
    113          1           0      -26.110065   -4.957157    1.088813
    114          1           0      -25.024213   -5.291222    3.500653
 ---------------------------------------------------------------------

 Alpha  occ. eigenvalues --   -0.68984  -0.68886  -0.68516  -0.68430  -0.68343
 Alpha  occ. eigenvalues --   -0.68123  -0.67953  -0.67780  -0.67722  -0.67562
 Alpha  occ. eigenvalues --   -0.67490  -0.67298  -0.67121  -0.66859  -0.65841
 Alpha  occ. eigenvalues --   -0.65676  -0.65507  -0.65084  -0.64913  -0.64616
 Alpha  occ. eigenvalues --   -0.64545  -0.61057  -0.60868  -0.60500  -0.60464
 Alpha  occ. eigenvalues --   -0.60413  -0.60148  -0.59901  -0.59279  -0.59047
 Alpha  occ. eigenvalues --   -0.58486  -0.58458  -0.58265  -0.58033  -0.57873
 Alpha  occ. eigenvalues --   -0.57766  -0.57658  -0.57593  -0.57558  -0.57531
 Alpha  occ. eigenvalues --   -0.57442  -0.57437  -0.57163  -0.57112  -0.56932
 Alpha  occ. eigenvalues --   -0.56843  -0.56659  -0.56436  -0.56256  -0.54874
 Alpha  occ. eigenvalues --   -0.54418  -0.54295  -0.54277  -0.54202  -0.53976
 Alpha  occ. eigenvalues --   -0.53955  -0.53620  -0.53543  -0.53447  -0.53323
 Alpha  occ. eigenvalues --   -0.53284  -0.53237  -0.53206  -0.52902  -0.52775
 Alpha  occ. eigenvalues --   -0.52745  -0.52710  -0.52608  -0.52035  -0.51699
 Alpha  occ. eigenvalues --   -0.51244  -0.50839  -0.50390  -0.50365  -0.50327
 Alpha  occ. eigenvalues --   -0.50301  -0.50218  -0.49889  -0.49717  -0.49601
 Alpha  occ. eigenvalues --   -0.49374  -0.49229  -0.48790  -0.48739  -0.48540
 Alpha  occ. eigenvalues --   -0.48415  -0.48068  -0.47814  -0.47665  -0.47632
 Alpha  occ. eigenvalues --   -0.47274  -0.47207  -0.46423  -0.46196  -0.46004
 Alpha  occ. eigenvalues --   -0.45906  -0.45812  -0.45450  -0.45447  -0.44733
 Alpha  occ. eigenvalues --   -0.44705  -0.44691  -0.44636  -0.44474  -0.44379
 Alpha  occ. eigenvalues --   -0.44298  -0.42885  -0.42341  -0.41598  -0.40675
 Alpha  occ. eigenvalues --   -0.39982  -0.39580  -0.39121  -0.38964  -0.38939
 Alpha  occ. eigenvalues --   -0.38797  -0.38654  -0.38350  -0.37744  -0.37120
 Alpha  occ. eigenvalues --   -0.36381  -0.36231  -0.36210  -0.35975  -0.35853
 Alpha  occ. eigenvalues --   -0.35376  -0.35056  -0.34921  -0.34851  -0.34819
 Alpha  occ. eigenvalues --   -0.34779  -0.34755  -0.34629  -0.34320  -0.33681
 Alpha  occ. eigenvalues --   -0.32935  -0.31795  -0.30606  -0.29514  -0.28672
 Alpha  occ. eigenvalues --   -0.28108
 Alpha virt. eigenvalues --   -0.02830  -0.02213  -0.01223  -0.00029   0.01169
 Alpha virt. eigenvalues --    0.02362   0.03177   0.03486   0.03629   0.03671
 Alpha virt. eigenvalues --    0.03771   0.03859   0.04107   0.04492   0.05518

  Beta  occ. eigenvalues --  -88.28190 -88.27953 -88.27870 -88.27839 -88.27774
  Beta  occ. eigenvalues --  -88.27767 -88.27309 -24.46881 -24.46850 -24.46846
  Beta  occ. eigenvalues --  -24.46773 -24.46408 -24.45451 -24.45171 -14.17647
  Beta  occ. eigenvalues --  -14.17641 -14.17623 -14.17580 -14.17277 -14.17019
  Beta  occ. eigenvalues --  -14.16367 -10.16279 -10.16248 -10.16221 -10.16179
  Beta  occ. eigenvalues --  -10.15982 -10.15711 -10.15656 -10.13121 -10.13108
  Beta  occ. eigenvalues --  -10.13076 -10.13031 -10.12995 -10.12786 -10.12455
  Beta  occ. eigenvalues --  -10.12416 -10.12169 -10.12149 -10.12119 -10.12060
  Beta  occ. eigenvalues --  -10.12036 -10.11651 -10.11617 -10.11599 -10.11562
  Beta  occ. eigenvalues --  -10.11307 -10.11274 -10.10910 -10.10884 -10.10877
  Beta  occ. eigenvalues --  -10.10812 -10.10809 -10.10638 -10.10568 -10.10505
  Beta  occ. eigenvalues --  -10.10472 -10.10424 -10.10353 -10.10330 -10.10313
  Beta  occ. eigenvalues --  -10.10195 -10.10162 -10.10114 -10.10082 -10.10034
  Beta  occ. eigenvalues --  -10.09992 -10.09983 -10.09850 -10.09373 -10.09012
  Beta  occ. eigenvalues --  -10.08902 -10.08886 -10.08834 -10.08785 -10.08728
  Beta  occ. eigenvalues --  -10.08699 -10.08652 -10.08637 -10.08606 -10.08566
  Beta  occ. eigenvalues --  -10.08488 -10.08428 -10.08217 -10.08071  -7.88742
  Beta  occ. eigenvalues --   -7.88500  -7.88346  -7.88316  -7.88251  -7.88240
  Beta  occ. eigenvalues --   -7.87793  -5.90593  -5.90350  -5.90201  -5.90171
  Beta  occ. eigenvalues --   -5.90106  -5.90100  -5.90095  -5.89857  -5.89700
  Beta  occ. eigenvalues --   -5.89670  -5.89642  -5.89639  -5.89606  -5.89593
  Beta  occ. eigenvalues --   -5.89404  -5.89265  -5.89235  -5.89170  -5.89161
  Beta  occ. eigenvalues --   -5.89134  -5.88734  -1.30894  -1.30861  -1.30853
  Beta  occ. eigenvalues --   -1.30790  -1.30385  -1.29894  -1.29591  -1.05899
  Beta  occ. eigenvalues --   -1.05873  -1.05826  -1.05751  -1.05500  -1.05402
  Beta  occ. eigenvalues --   -1.04633  -1.00946  -1.00866  -1.00643  -1.00464
  Beta  occ. eigenvalues --   -1.00325  -1.00203  -0.99594  -0.93525  -0.93341
  Beta  occ. eigenvalues --   -0.93033  -0.92703  -0.92515  -0.92367  -0.90869
  Beta  occ. eigenvalues --   -0.90474  -0.90367  -0.90125  -0.89844  -0.89491
  Beta  occ. eigenvalues --   -0.89014  -0.88590  -0.86354  -0.85803  -0.85422
  Beta  occ. eigenvalues --   -0.85362  -0.85322  -0.85104  -0.84735  -0.84540
  Beta  occ. eigenvalues --   -0.84276  -0.83915  -0.83053  -0.82155  -0.81314
  Beta  occ. eigenvalues --   -0.80609  -0.77477  -0.76708  -0.75958  -0.75733
  Beta  occ. eigenvalues --   -0.75611  -0.75171  -0.74731  -0.74518  -0.74318
  Beta  occ. eigenvalues --   -0.74206  -0.73673  -0.73406  -0.73068  -0.72729
  Beta  occ. eigenvalues --   -0.68984  -0.68886  -0.68516  -0.68430  -0.68343
  Beta  occ. eigenvalues --   -0.68123  -0.67953  -0.67780  -0.67722  -0.67562
  Beta  occ. eigenvalues --   -0.67490  -0.67298  -0.67121  -0.66859  -0.65841
  Beta  occ. eigenvalues --   -0.65676  -0.65507  -0.65084  -0.64913  -0.64616
  Beta  occ. eigenvalues --   -0.64545  -0.61057  -0.60868  -0.60500  -0.60464
  Beta  occ. eigenvalues --   -0.60413  -0.60148  -0.59901  -0.59279  -0.59047
  Beta  occ. eigenvalues --   -0.58486  -0.58458  -0.58265  -0.58033  -0.57873
  Beta  occ. eigenvalues --   -0.57766  -0.57658  -0.57593  -0.57558  -0.57531
  Beta  occ. eigenvalues --   -0.57442  -0.57437  -0.57163  -0.57112  -0.56932
  Beta  occ. eigenvalues --   -0.56843  -0.56659  -0.56436  -0.56256  -0.54874
  Beta  occ. eigenvalues --   -0.54418  -0.54295  -0.54277  -0.54202  -0.53976
  Beta  occ. eigenvalues --   -0.53955  -0.53620  -0.53543  -0.53447  -0.53323
  Beta  occ. eigenvalues --   -0.53284  -0.53237  -0.53206  -0.52902  -0.52775
  Beta  occ. eigenvalues --   -0.52745  -0.52710  -0.52608  -0.52035  -0.51699
  Beta  occ. eigenvalues --   -0.51244  -0.50839  -0.50390  -0.50365  -0.50327
  Beta  occ. eigenvalues --   -0.50301  -0.50218  -0.49889  -0.49717  -0.49601
  Beta  occ. eigenvalues --   -0.49374  -0.49229  -0.48790  -0.48739  -0.48540
  Beta  occ. eigenvalues --   -0.48415  -0.48068  -0.47814  -0.47665  -0.47632
  Beta  occ. eigenvalues --   -0.47274  -0.47207  -0.46423  -0.46196  -0.46004
  Beta  occ. eigenvalues --   -0.45906  -0.45812  -0.45450  -0.45447  -0.44733
  Beta  occ. eigenvalues --   -0.44705  -0.44691  -0.44636  -0.44474  -0.44379
  Beta  occ. eigenvalues --   -0.44298  -0.42885  -0.42341  -0.41598  -0.40675
  Beta  occ. eigenvalues --   -0.39982  -0.39580  -0.39121  -0.38964  -0.38939
  Beta  occ. eigenvalues --   -0.38797  -0.38654  -0.38350  -0.37744  -0.37120
  Beta  occ. eigenvalues --   -0.36381  -0.36231  -0.36210  -0.35975  -0.35853
  Beta  occ. eigenvalues --   -0.35376  -0.35056  -0.34921  -0.34851  -0.34819
  Beta  occ. eigenvalues --   -0.34779  -0.34755  -0.34629  -0.34320  -0.33681
  Beta  occ. eigenvalues --   -0.32935  -0.31795  -0.30606  -0.29514  -0.28672
  Beta  occ. eigenvalues --   -0.28108
  Beta virt. eigenvalues --   -0.02830  -0.02213  -0.01223  -0.00029   0.01169
  Beta virt. eigenvalues --    0.02362   0.03177   0.03486   0.03629   0.03671
  Beta virt. eigenvalues --    0.03771   0.03859   0.04107   0.04492   0.05518

 Mulliken charges and spin densities:
               1          2
     1  C   -0.040682  -0.000000
     2  C    0.063480  -0.000000
     3  C   -0.019020  -0.000000
     4  C    0.104767   0.000000
     5  N   -0.186703   0.000000
     6  C    0.084547  -0.000000
     7  C   -0.185734   0.000000
     8  C    0.146799   0.000000
     9  F   -0.097822  -0.000000
    10  C    0.025249  -0.000000
    11  C   -0.155106   0.000000
    12  S    0.168573  -0.000000
    13  C   -0.014231  -0.000000
    14  C    0.066940  -0.000000
    15  C   -0.002460   0.000000
    16  C    0.137864  -0.000000
    17  N   -0.212472   0.000000
    18  C    0.096990   0.000000
    19  C   -0.167280   0.000000
    20  C    0.094802  -0.000000
    21  F   -0.122986   0.000000
    22  C    0.039586   0.000000
    23  C   -0.163023  -0.000000
    24  S    0.219937  -0.000000
    25  C   -0.023261   0.000000
    26  C    0.067669  -0.000000
    27  C   -0.002835  -0.000000
    28  C    0.136384   0.000000
    29  N   -0.212606  -0.000000
    30  C    0.100196   0.000000
    31  C   -0.166652   0.000000
    32  C    0.095330  -0.000000
    33  F   -0.122859   0.000000
    34  C    0.039161  -0.000000
    35  C   -0.162774  -0.000000
    36  S    0.219621   0.000000
    37  C   -0.022977   0.000000
    38  C    0.067519  -0.000000
    39  C   -0.002710  -0.000000
    40  C    0.136136  -0.000000
    41  N   -0.212649   0.000000
    42  C    0.099969   0.000000
    43  C   -0.166723   0.000000
    44  C    0.095722  -0.000000
    45  F   -0.122731   0.000000
    46  C    0.039573   0.000000
    47  C   -0.162308  -0.000000
    48  S    0.218040   0.000000
    49  C   -0.019081   0.000000
    50  C    0.060825  -0.000000
    51  C   -0.001074   0.000000
    52  C    0.113452   0.000000
    53  N   -0.184938   0.000000
    54  C    0.090087  -0.000000
    55  C   -0.189200  -0.000000
    56  C    0.145593   0.000000
    57  F   -0.095706  -0.000000
    58  C    0.029921   0.000000
    59  C   -0.152188  -0.000000
    60  S    0.163729  -0.000000
    61  C   -0.020293   0.000000
    62  C    0.066605   0.000000
    63  C   -0.002863  -0.000000
    64  C    0.136864  -0.000000
    65  N   -0.211482   0.000000
    66  C    0.101224  -0.000000
    67  C   -0.167965   0.000000
    68  C    0.095354   0.000000
    69  F   -0.123787   0.000000
    70  C    0.038244  -0.000000
    71  C   -0.164187  -0.000000
    72  S    0.225181   0.000000
    73  C   -0.020208   0.000000
    74  C    0.065821  -0.000000
    75  C   -0.003106   0.000000
    76  C    0.144976   0.000000
    77  N   -0.211518  -0.000000
    78  C    0.096941   0.000000
    79  C   -0.174560  -0.000000
    80  C    0.077358   0.000000
    81  F   -0.126542  -0.000000
    82  C    0.059396  -0.000000
    83  C   -0.131255   0.000000
    84  S    0.217813   0.000000
    85  H    0.001866   0.000000
    86  H    0.004880   0.000000
    87  H    0.006840   0.000000
    88  H    0.012367   0.000000
    89  H    0.005551   0.000000
    90  H   -0.001023  -0.000000
    91  H    0.006748   0.000000
    92  H    0.014966   0.000000
    93  H    0.008228  -0.000000
    94  H    0.006940  -0.000000
    95  H    0.006797  -0.000000
    96  H    0.010422   0.000000
    97  H    0.007994   0.000000
    98  H    0.006785  -0.000000
    99  H    0.006931  -0.000000
   100  H    0.010135   0.000000
   101  H    0.009152  -0.000000
   102  H    0.005502  -0.000000
   103  H    0.007734   0.000000
   104  H    0.010086  -0.000000
   105  H    0.009404  -0.000000
   106  H    0.003141   0.000000
   107  H    0.006434  -0.000000
   108  H    0.012405  -0.000000
   109  H    0.005511  -0.000000
   110  H   -0.003537  -0.000000
   111  H    0.006019   0.000000
   112  H    0.018498  -0.000000
   113  H    0.010554  -0.000000
   114  H    0.036995   0.000000
 Sum of Mulliken charges =  -0.00000  -0.00000

 Dipole moment (field-independent basis, Debye):
    X=             -0.3914    Y=             -1.6926    Z=             -3.1622  Tot=              3.6080
 Quadrupole moment (field-independent basis, Debye-Ang):
   XX=           -455.4206   YY=           -483.9195   ZZ=           -508.5653
   XY=             -4.8891   XZ=             21.4662   YZ=              5.3546

 Normal termination of Gaussian 16 at Sat Jul 25 15:30:50 2020.
