 Gaussian 16, Revision A.03,
 Gaussian 16:  EM64L-G16RevA.03 25-Dec-2016

 ---------------------------------------------------------------
 #P uLC-wPBE/cc-pVDZ iop(3/107=0364900000, 3/108=0364900000) opt
 ---------------------------------------------------------------

 ---------------
 H9 C11 S1 O1 F1
 ---------------
 Symbolic Z-matrix:
 Charge =  0 Multiplicity = 1

 SCF Done:  E(ULC-wPBE) =  -997.269896338     A.U. after   16 cycles
 SCF Done:  E(ULC-wPBE) =  -997.300172972     A.U. after   14 cycles
 SCF Done:  E(ULC-wPBE) =  -997.306665939     A.U. after   14 cycles
 SCF Done:  E(ULC-wPBE) =  -997.307013643     A.U. after   14 cycles
 SCF Done:  E(ULC-wPBE) =  -997.307124288     A.U. after   14 cycles
 SCF Done:  E(ULC-wPBE) =  -997.307153778     A.U. after   12 cycles
 SCF Done:  E(ULC-wPBE) =  -997.307167990     A.U. after   11 cycles
 SCF Done:  E(ULC-wPBE) =  -997.307171256     A.U. after   10 cycles
 SCF Done:  E(ULC-wPBE) =  -997.307171819     A.U. after    8 cycles
 SCF Done:  E(ULC-wPBE) =  -997.307172034     A.U. after    9 cycles
 SCF Done:  E(ULC-wPBE) =  -997.307172097     A.U. after    8 cycles
 Optimization completed.
    -- Stationary point found.

                         Standard orientation:
 ---------------------------------------------------------------------
 Center     Atomic      Atomic             Coordinates (Angstroms)
 Number     Number       Type             X           Y           Z
 ---------------------------------------------------------------------
      1          6           0       -3.240703   -1.175709    0.210524
      2          6           0       -2.314760   -2.169425    0.490220
      3          6           0       -0.958043   -1.863607    0.441401
      4          6           0       -0.510918   -0.586176    0.112891
      5          6           0       -1.462528    0.409638   -0.184292
      6          8           0       -0.967875    1.620320   -0.529960
      7          6           0       -1.878003    2.664387   -0.786982
      8          6           0       -2.822654    0.109559   -0.125606
      9          6           0        0.931081   -0.283842    0.058166
     10          6           0        1.625719    0.723139    0.663054
     11          9           0        1.052120    1.645112    1.444199
     12          6           0        3.027692    0.713862    0.430582
     13          6           0        3.384639   -0.330048   -0.367153
     14         16           0        2.032996   -1.277045   -0.831601
     15          1           0       -4.310885   -1.393613    0.250245
     16          1           0       -2.641521   -3.177088    0.754304
     17          1           0       -0.215468   -2.631037    0.675155
     18          1           0       -1.269743    3.547207   -1.019435
     19          1           0       -2.506374    2.881749    0.093611
     20          1           0       -2.527432    2.437317   -1.650015
     21          1           0       -3.568042    0.873097   -0.349139
     22          1           0        3.713716    1.448768    0.850272
     23          1           0        4.382602   -0.592915   -0.714323
 ---------------------------------------------------------------------

 The electronic state is 1-A.
 Alpha  occ. eigenvalues --  -88.30135 -24.47568 -18.99535 -10.17700 -10.16689
 Alpha  occ. eigenvalues --  -10.15553 -10.13354 -10.13064 -10.11769 -10.10890
 Alpha  occ. eigenvalues --  -10.10859 -10.10830 -10.10339 -10.09836  -7.90815
 Alpha  occ. eigenvalues --   -5.92465  -5.91949  -5.91528  -1.32087  -1.19263
 Alpha  occ. eigenvalues --   -1.02876  -0.99185  -0.91228  -0.88483  -0.86357
 Alpha  occ. eigenvalues --   -0.84813  -0.82305  -0.74703  -0.72086  -0.69743
 Alpha  occ. eigenvalues --   -0.68486  -0.66596  -0.63285  -0.60710  -0.59352
 Alpha  occ. eigenvalues --   -0.58779  -0.57404  -0.56465  -0.55843  -0.55193
 Alpha  occ. eigenvalues --   -0.52956  -0.52141  -0.50336  -0.48977  -0.48141
 Alpha  occ. eigenvalues --   -0.46822  -0.46663  -0.44909  -0.43659  -0.43140
 Alpha  occ. eigenvalues --   -0.37230  -0.34677  -0.33086  -0.30643
 Alpha virt. eigenvalues --    0.04718   0.08085   0.09244   0.13295   0.15145
 Alpha virt. eigenvalues --    0.16641   0.17003   0.17308   0.19753   0.20104
 Alpha virt. eigenvalues --    0.21545   0.22133   0.22655   0.23211   0.24214

  Beta  occ. eigenvalues --  -88.30135 -24.47568 -18.99535 -10.17700 -10.16689
  Beta  occ. eigenvalues --  -10.15553 -10.13354 -10.13064 -10.11769 -10.10890
  Beta  occ. eigenvalues --  -10.10859 -10.10830 -10.10339 -10.09836  -7.90815
  Beta  occ. eigenvalues --   -5.92465  -5.91949  -5.91528  -1.32087  -1.19263
  Beta  occ. eigenvalues --   -1.02876  -0.99185  -0.91228  -0.88483  -0.86357
  Beta  occ. eigenvalues --   -0.84813  -0.82305  -0.74703  -0.72086  -0.69743
  Beta  occ. eigenvalues --   -0.68486  -0.66596  -0.63285  -0.60710  -0.59352
  Beta  occ. eigenvalues --   -0.58779  -0.57404  -0.56465  -0.55843  -0.55193
  Beta  occ. eigenvalues --   -0.52956  -0.52141  -0.50336  -0.48977  -0.48141
  Beta  occ. eigenvalues --   -0.46822  -0.46663  -0.44909  -0.43659  -0.43140
  Beta  occ. eigenvalues --   -0.37230  -0.34677  -0.33086  -0.30643
  Beta virt. eigenvalues --    0.04718   0.08085   0.09244   0.13295   0.15145
  Beta virt. eigenvalues --    0.16641   0.17003   0.17308   0.19753   0.20104
  Beta virt. eigenvalues --    0.21545   0.22133   0.22655   0.23211   0.24214

 Mulliken charges and spin densities:
               1          2
     1  C    0.013943  -0.000000
     2  C    0.004533   0.000000
     3  C    0.025205  -0.000000
     4  C   -0.011678   0.000000
     5  C    0.115982  -0.000000
     6  O   -0.238101   0.000000
     7  C    0.047554   0.000000
     8  C   -0.052513  -0.000000
     9  C   -0.202342   0.000000
    10  C    0.139644  -0.000000
    11  F   -0.122559   0.000000
    12  C    0.030813  -0.000000
    13  C   -0.137433  -0.000000
    14  S    0.172088  -0.000000
    15  H    0.001748  -0.000000
    16  H   -0.002026  -0.000000
    17  H   -0.004032  -0.000000
    18  H    0.061266   0.000000
    19  H    0.049564  -0.000000
    20  H    0.047453  -0.000000
    21  H    0.003863   0.000000
    22  H    0.015861  -0.000000
    23  H    0.041167  -0.000000
 Sum of Mulliken charges =  -0.00000   0.00000

 Dipole moment (field-independent basis, Debye):
    X=             -0.6959    Y=              0.6912    Z=             -0.6665  Tot=              1.1859
 Quadrupole moment (field-independent basis, Debye-Ang):
   XX=            -71.1823   YY=            -79.2021   ZZ=            -90.2400
   XY=             -2.9714   XZ=              0.3826   YZ=             -2.6237

 Normal termination of Gaussian 16 at Fri Jul 24 17:35:51 2020.
