 Gaussian 16, Revision A.03,
 Gaussian 16:  EM64L-G16RevA.03 25-Dec-2016

 ---------------------------------------------------------------
 #P uLC-wPBE/cc-pVDZ iop(3/107=0398900000, 3/108=0398900000) opt
 ---------------------------------------------------------------

 -----------------
 H16 C49 S14 N7 F7
 -----------------
 Symbolic Z-matrix:
 Charge =  0 Multiplicity = 1

 SCF Done:  E(ULC-wPBE) =  -8529.90522565     A.U. after   17 cycles
 SCF Done:  E(ULC-wPBE) =  -8529.98442750     A.U. after   14 cycles
 SCF Done:  E(ULC-wPBE) =  -8530.05419139     A.U. after   15 cycles
 SCF Done:  E(ULC-wPBE) =  -8530.07014585     A.U. after   13 cycles
 SCF Done:  E(ULC-wPBE) =  -8530.07248691     A.U. after   13 cycles
 SCF Done:  E(ULC-wPBE) =  -8530.07259140     A.U. after   13 cycles
 SCF Done:  E(ULC-wPBE) =  -8530.07294349     A.U. after   12 cycles
 SCF Done:  E(ULC-wPBE) =  -8530.07308240     A.U. after   12 cycles
 SCF Done:  E(ULC-wPBE) =  -8530.07325175     A.U. after   13 cycles
 SCF Done:  E(ULC-wPBE) =  -8530.07339908     A.U. after   12 cycles
 SCF Done:  E(ULC-wPBE) =  -8530.07516803     A.U. after   12 cycles
 SCF Done:  E(ULC-wPBE) =  -8530.07519073     A.U. after   13 cycles
 SCF Done:  E(ULC-wPBE) =  -8530.07519439     A.U. after   13 cycles
 SCF Done:  E(ULC-wPBE) =  -8530.07520150     A.U. after   11 cycles
 SCF Done:  E(ULC-wPBE) =  -8530.07521646     A.U. after   12 cycles
 SCF Done:  E(ULC-wPBE) =  -8530.07521767     A.U. after   11 cycles
 SCF Done:  E(ULC-wPBE) =  -8530.07521902     A.U. after   11 cycles
 SCF Done:  E(ULC-wPBE) =  -8530.07521949     A.U. after   11 cycles
 SCF Done:  E(ULC-wPBE) =  -8530.07521956     A.U. after    8 cycles
 SCF Done:  E(ULC-wPBE) =  -8530.07521958     A.U. after   10 cycles
 Optimization completed.
    -- Stationary point found.

                         Standard orientation:
 ---------------------------------------------------------------------
 Center     Atomic      Atomic             Coordinates (Angstroms)
 Number     Number       Type             X           Y           Z
 ---------------------------------------------------------------------
      1          6           0      -24.621231    3.961754   -0.066557
      2          6           0      -23.766729    4.400648    0.898111
      3          6           0      -22.521208    3.735855    0.793841
      4          9           0      -21.502797    3.981728    1.623479
      5          6           0      -22.439917    2.823828   -0.218847
      6         16           0      -23.932069    2.768538   -1.080126
      7          6           0      -21.327326    1.974696   -0.607988
      8          7           0      -21.397278    1.143525   -1.607685
      9          6           0      -20.218933    0.476735   -1.760916
     10          6           0      -19.230683    0.784787   -0.871376
     11         16           0      -19.811199    1.986874    0.223908
     12          6           0      -17.887755    0.220744   -0.799436
     13          6           0      -17.519864   -1.056178   -1.125779
     14          6           0      -16.129988   -1.239826   -0.956143
     15          9           0      -15.525907   -2.404976   -1.205169
     16          6           0      -15.452423   -0.144340   -0.504107
     17         16           0      -16.542702    1.174425   -0.293754
     18          6           0      -14.040371    0.014186   -0.209327
     19          7           0      -13.539405    1.134900    0.224584
     20          6           0      -12.197390    1.014359    0.426655
     21          6           0      -11.651092   -0.204719    0.144715
     22         16           0      -12.894435   -1.265475   -0.410966
     23          6           0      -10.263385   -0.632260    0.264995
     24          6           0       -9.791442   -1.903383    0.449973
     25          6           0       -8.381651   -1.912387    0.532119
     26          9           0       -7.682844   -3.034664    0.719696
     27          6           0       -7.788126   -0.688957    0.415021
     28         16           0       -8.988638    0.525990    0.177158
     29          6           0       -6.381679   -0.334025    0.458011
     30          7           0       -5.968107    0.894514    0.332247
     31          6           0       -4.608734    0.952316    0.400495
     32          6           0       -3.962610   -0.235385    0.588206
     33         16           0       -5.129306   -1.504916    0.682540
     34          6           0       -2.526700   -0.460734    0.707034
     35          6           0       -1.609139    0.392495    1.256835
     36          6           0       -0.306545   -0.147106    1.175957
     37          9           0        0.764995    0.494051    1.649792
     38          6           0       -0.225768   -1.378578    0.592548
     39         16           0       -1.793887   -1.899749    0.101537
     40          6           0        0.934663   -2.219315    0.362035
     41          7           0        0.849014   -3.385537   -0.210695
     42          6           0        2.079390   -3.961691   -0.313442
     43          6           0        3.125530   -3.243321    0.188993
     44         16           0        2.533209   -1.752630    0.828437
     45          6           0        4.532931   -3.622461    0.222543
     46          6           0        5.045895   -4.879788    0.366768
     47          6           0        6.460959   -4.875452    0.324195
     48          9           0        7.157376   -5.993909    0.463584
     49          6           0        7.024373   -3.639498    0.161938
     50         16           0        5.779809   -2.447910    0.027304
     51          6           0        8.441502   -3.310128    0.102341
     52          7           0        9.381829   -4.191648   -0.066675
     53          6           0       10.606666   -3.593886   -0.065205
     54          6           0       10.624353   -2.238391    0.096514
     55         16           0        9.001963   -1.677020    0.268702
     56          6           0       11.767662   -1.336024    0.134661
     57          6           0       11.852667   -0.116331    0.748937
     58          6           0       13.134846    0.449717    0.574442
     59          9           0       13.468507    1.636720    1.087173
     60          6           0       14.007907   -0.309788   -0.148981
     61         16           0       13.238182   -1.766834   -0.656744
     62          6           0       15.388060   -0.043713   -0.511804
     63          7           0       16.096740   -0.879054   -1.215723
     64          6           0       17.355354   -0.394434   -1.410669
     65          6           0       17.623829    0.826727   -0.863084
     66         16           0       16.213834    1.403512   -0.050279
     67          6           0       18.871356    1.579898   -0.926715
     68          6           0       19.764767    1.593272   -1.962214
     69          6           0       20.872953    2.417671   -1.663205
     70          9           0       21.881327    2.597788   -2.521217
     71          6           0       20.828359    3.026041   -0.442938
     72         16           0       19.391261    2.565935    0.389830
     73          6           0       21.775424    3.937802    0.177872
     74          7           0       21.581611    4.438787    1.362712
     75          6           0       22.617890    5.261585    1.709781
     76          6           0       23.605597    5.388480    0.786837
     77         16           0       23.240193    4.439551   -0.592941
     78          1           0      -25.645151    4.288535   -0.235378
     79          1           0      -23.992318    5.153902    1.649543
     80          1           0      -20.110975   -0.238520   -2.575804
     81          1           0      -18.201644   -1.840296   -1.446938
     82          1           0      -11.636890    1.868008    0.808148
     83          1           0      -10.408255   -2.794771    0.545154
     84          1           0       -4.107453    1.912862    0.285254
     85          1           0       -1.843469    1.347315    1.721852
     86          1           0        2.177254   -4.933705   -0.795891
     87          1           0        4.452951   -5.777809    0.525696
     88          1           0       11.499015   -4.209689   -0.180197
     89          1           0       11.055292    0.357429    1.318038
     90          1           0       18.080053   -0.992753   -1.961950
     91          1           0       19.636604    1.066502   -2.905135
     92          1           0       22.600632    5.758802    2.678845
     93          1           0       24.514728    5.981520    0.845837
 ---------------------------------------------------------------------

 Alpha  occ. eigenvalues --  -10.21371 -10.20512 -10.19612 -10.19490 -10.19479
 Alpha  occ. eigenvalues --  -10.19402 -10.19274 -10.18764 -10.18370 -10.18276
 Alpha  occ. eigenvalues --  -10.18273 -10.18265 -10.18104 -10.17990 -10.17909
 Alpha  occ. eigenvalues --  -10.17908 -10.17904 -10.17867 -10.17685 -10.17511
 Alpha  occ. eigenvalues --  -10.17508 -10.17246 -10.17109 -10.17050 -10.17029
 Alpha  occ. eigenvalues --  -10.16894 -10.16819 -10.16595 -10.15730 -10.15605
 Alpha  occ. eigenvalues --  -10.15309 -10.15267 -10.15218 -10.15174 -10.15095
 Alpha  occ. eigenvalues --  -10.14832 -10.14688  -7.95620  -7.95597  -7.95503
 Alpha  occ. eigenvalues --   -7.95480  -7.95359  -7.95354  -7.95313  -7.95262
 Alpha  occ. eigenvalues --   -7.95260  -7.95110  -7.95047  -7.94829  -7.94646
 Alpha  occ. eigenvalues --   -7.94274  -5.97169  -5.97111  -5.97018  -5.96996
 Alpha  occ. eigenvalues --   -5.96907  -5.96868  -5.96827  -5.96816  -5.96815
 Alpha  occ. eigenvalues --   -5.96639  -5.96624  -5.96603  -5.96586  -5.96492
 Alpha  occ. eigenvalues --   -5.96471  -5.96370  -5.96369  -5.96357  -5.96301
 Alpha  occ. eigenvalues --   -5.96278  -5.96278  -5.96197  -5.96187  -5.96152
 Alpha  occ. eigenvalues --   -5.96099  -5.96094  -5.96065  -5.96065  -5.95941
 Alpha  occ. eigenvalues --   -5.95905  -5.95899  -5.95828  -5.95807  -5.95797
 Alpha  occ. eigenvalues --   -5.95775  -5.95703  -5.95661  -5.95585  -5.95401
 Alpha  occ. eigenvalues --   -5.95250  -5.95192  -5.94890  -1.37762  -1.37704
 Alpha  occ. eigenvalues --   -1.37689  -1.37428  -1.37289  -1.36929  -1.36744
 Alpha  occ. eigenvalues --   -1.14286  -1.14215  -1.14138  -1.13974  -1.13910
 Alpha  occ. eigenvalues --   -1.13787  -1.12819  -1.08015  -1.07835  -1.07630
 Alpha  occ. eigenvalues --   -1.07439  -1.07330  -1.06887  -1.06723  -0.99183
 Alpha  occ. eigenvalues --   -0.98914  -0.98646  -0.98417  -0.98239  -0.98000
 Alpha  occ. eigenvalues --   -0.95827  -0.95619  -0.95429  -0.95135  -0.94736
 Alpha  occ. eigenvalues --   -0.94337  -0.93865  -0.93280  -0.91457  -0.91396
 Alpha  occ. eigenvalues --   -0.90997  -0.90879  -0.90653  -0.90397  -0.90076
 Alpha  occ. eigenvalues --   -0.89894  -0.89407  -0.88652  -0.87567  -0.86507
 Alpha  occ. eigenvalues --   -0.85982  -0.85497  -0.80372  -0.79639  -0.79353
 Alpha  occ. eigenvalues --   -0.78822  -0.78450  -0.77404  -0.76376  -0.76097
 Alpha  occ. eigenvalues --   -0.75826  -0.75659  -0.75163  -0.74220  -0.74128
 Alpha  occ. eigenvalues --   -0.73152  -0.73097  -0.72279  -0.71965  -0.71663
 Alpha  occ. eigenvalues --   -0.71510  -0.71480  -0.71298  -0.69960  -0.69949
 Alpha  occ. eigenvalues --   -0.69869  -0.69553  -0.69207  -0.69143  -0.68962
 Alpha  occ. eigenvalues --   -0.67430  -0.66927  -0.66165  -0.66031  -0.65771
 Alpha  occ. eigenvalues --   -0.64967  -0.64340  -0.62909  -0.62867  -0.62818
 Alpha  occ. eigenvalues --   -0.62735  -0.62621  -0.62564  -0.62448  -0.62366
 Alpha  occ. eigenvalues --   -0.62321  -0.62303  -0.62157  -0.62127  -0.61934
 Alpha  occ. eigenvalues --   -0.61889  -0.60311  -0.60169  -0.59893  -0.59838
 Alpha  occ. eigenvalues --   -0.59479  -0.59237  -0.59063  -0.58832  -0.58468
 Alpha  occ. eigenvalues --   -0.58293  -0.58182  -0.58098  -0.58038  -0.57813
 Alpha  occ. eigenvalues --   -0.57757  -0.57472  -0.57380  -0.57214  -0.56823
 Alpha  occ. eigenvalues --   -0.56615  -0.56523  -0.55620  -0.55384  -0.54894
 Alpha  occ. eigenvalues --   -0.54515  -0.54080  -0.53815  -0.53644  -0.53415
 Alpha  occ. eigenvalues --   -0.53236  -0.53101  -0.52738  -0.52508  -0.52290
 Alpha  occ. eigenvalues --   -0.51927  -0.51883  -0.51712  -0.51457  -0.51337
 Alpha  occ. eigenvalues --   -0.51060  -0.50953  -0.50796  -0.50584  -0.50194
 Alpha  occ. eigenvalues --   -0.49890  -0.49788  -0.49599  -0.49397  -0.49201
 Alpha  occ. eigenvalues --   -0.48174  -0.48154  -0.48144  -0.47972  -0.47783
 Alpha  occ. eigenvalues --   -0.47735  -0.47501  -0.47353  -0.45512  -0.44876
 Alpha  occ. eigenvalues --   -0.43939  -0.42964  -0.42169  -0.41455  -0.41005
 Alpha  occ. eigenvalues --   -0.40933  -0.40837  -0.40702  -0.40544  -0.40467
 Alpha  occ. eigenvalues --   -0.40391  -0.40373  -0.40294  -0.40258  -0.40125
 Alpha  occ. eigenvalues --   -0.39844  -0.39720  -0.39244  -0.38591  -0.37640
 Alpha  occ. eigenvalues --   -0.37595  -0.37578  -0.37524  -0.37342  -0.37125
 Alpha  occ. eigenvalues --   -0.36947  -0.36051  -0.34879  -0.33456  -0.32181
 Alpha  occ. eigenvalues --   -0.31073  -0.30013  -0.29505
 Alpha virt. eigenvalues --   -0.03011  -0.02341  -0.01317  -0.00237   0.00840
 Alpha virt. eigenvalues --    0.02102   0.02949   0.04906   0.05937   0.06502
 Alpha virt. eigenvalues --    0.07366   0.07938   0.08376   0.08742   0.09003

  Beta  occ. eigenvalues --  -88.34852 -88.34788 -88.34695 -88.34666 -88.34640
  Beta  occ. eigenvalues --  -88.34548 -88.34545 -88.34509 -88.34505 -88.34333
  Beta  occ. eigenvalues --  -88.34302 -88.34102 -88.33932 -88.33452 -24.53145
  Beta  occ. eigenvalues --  -24.53096 -24.53063 -24.52803 -24.52700 -24.52325
  Beta  occ. eigenvalues --  -24.51748 -14.23529 -14.23463 -14.23435 -14.23256
  Beta  occ. eigenvalues --  -14.23114 -14.23073 -14.22289 -10.23222 -10.23162
  Beta  occ. eigenvalues --  -10.23152 -10.22923 -10.22903 -10.22691 -10.22384
  Beta  occ. eigenvalues --  -10.21849 -10.21769 -10.21767 -10.21657 -10.21572
  Beta  occ. eigenvalues --  -10.21371 -10.20512 -10.19612 -10.19490 -10.19479
  Beta  occ. eigenvalues --  -10.19402 -10.19274 -10.18764 -10.18370 -10.18276
  Beta  occ. eigenvalues --  -10.18273 -10.18265 -10.18104 -10.17990 -10.17909
  Beta  occ. eigenvalues --  -10.17908 -10.17904 -10.17867 -10.17685 -10.17511
  Beta  occ. eigenvalues --  -10.17508 -10.17246 -10.17109 -10.17050 -10.17029
  Beta  occ. eigenvalues --  -10.16894 -10.16819 -10.16595 -10.15730 -10.15605
  Beta  occ. eigenvalues --  -10.15309 -10.15267 -10.15218 -10.15174 -10.15095
  Beta  occ. eigenvalues --  -10.14832 -10.14688  -7.95620  -7.95597  -7.95503
  Beta  occ. eigenvalues --   -7.95480  -7.95359  -7.95354  -7.95313  -7.95262
  Beta  occ. eigenvalues --   -7.95260  -7.95110  -7.95047  -7.94829  -7.94646
  Beta  occ. eigenvalues --   -7.94274  -5.97169  -5.97111  -5.97018  -5.96996
  Beta  occ. eigenvalues --   -5.96907  -5.96868  -5.96827  -5.96816  -5.96815
  Beta  occ. eigenvalues --   -5.96639  -5.96624  -5.96603  -5.96586  -5.96492
  Beta  occ. eigenvalues --   -5.96471  -5.96370  -5.96369  -5.96357  -5.96301
  Beta  occ. eigenvalues --   -5.96278  -5.96278  -5.96197  -5.96187  -5.96152
  Beta  occ. eigenvalues --   -5.96099  -5.96094  -5.96065  -5.96065  -5.95941
  Beta  occ. eigenvalues --   -5.95905  -5.95899  -5.95828  -5.95807  -5.95797
  Beta  occ. eigenvalues --   -5.95775  -5.95703  -5.95661  -5.95585  -5.95401
  Beta  occ. eigenvalues --   -5.95250  -5.95192  -5.94890  -1.37762  -1.37704
  Beta  occ. eigenvalues --   -1.37689  -1.37428  -1.37289  -1.36929  -1.36744
  Beta  occ. eigenvalues --   -1.14286  -1.14215  -1.14138  -1.13974  -1.13910
  Beta  occ. eigenvalues --   -1.13787  -1.12819  -1.08015  -1.07835  -1.07630
  Beta  occ. eigenvalues --   -1.07439  -1.07330  -1.06887  -1.06723  -0.99183
  Beta  occ. eigenvalues --   -0.98914  -0.98646  -0.98417  -0.98239  -0.98000
  Beta  occ. eigenvalues --   -0.95827  -0.95619  -0.95429  -0.95135  -0.94736
  Beta  occ. eigenvalues --   -0.94337  -0.93865  -0.93280  -0.91457  -0.91396
  Beta  occ. eigenvalues --   -0.90997  -0.90879  -0.90653  -0.90397  -0.90076
  Beta  occ. eigenvalues --   -0.89894  -0.89407  -0.88652  -0.87567  -0.86507
  Beta  occ. eigenvalues --   -0.85982  -0.85497  -0.80372  -0.79639  -0.79353
  Beta  occ. eigenvalues --   -0.78822  -0.78450  -0.77404  -0.76376  -0.76097
  Beta  occ. eigenvalues --   -0.75826  -0.75659  -0.75163  -0.74220  -0.74128
  Beta  occ. eigenvalues --   -0.73152  -0.73097  -0.72279  -0.71965  -0.71663
  Beta  occ. eigenvalues --   -0.71510  -0.71480  -0.71298  -0.69960  -0.69949
  Beta  occ. eigenvalues --   -0.69869  -0.69553  -0.69207  -0.69143  -0.68962
  Beta  occ. eigenvalues --   -0.67430  -0.66927  -0.66165  -0.66031  -0.65771
  Beta  occ. eigenvalues --   -0.64967  -0.64340  -0.62909  -0.62867  -0.62818
  Beta  occ. eigenvalues --   -0.62735  -0.62621  -0.62564  -0.62448  -0.62366
  Beta  occ. eigenvalues --   -0.62321  -0.62303  -0.62157  -0.62127  -0.61934
  Beta  occ. eigenvalues --   -0.61889  -0.60311  -0.60169  -0.59893  -0.59838
  Beta  occ. eigenvalues --   -0.59479  -0.59237  -0.59063  -0.58832  -0.58468
  Beta  occ. eigenvalues --   -0.58293  -0.58182  -0.58098  -0.58038  -0.57813
  Beta  occ. eigenvalues --   -0.57757  -0.57472  -0.57380  -0.57214  -0.56823
  Beta  occ. eigenvalues --   -0.56615  -0.56523  -0.55620  -0.55384  -0.54894
  Beta  occ. eigenvalues --   -0.54515  -0.54080  -0.53815  -0.53644  -0.53415
  Beta  occ. eigenvalues --   -0.53236  -0.53101  -0.52738  -0.52508  -0.52290
  Beta  occ. eigenvalues --   -0.51927  -0.51883  -0.51712  -0.51457  -0.51337
  Beta  occ. eigenvalues --   -0.51060  -0.50953  -0.50796  -0.50584  -0.50194
  Beta  occ. eigenvalues --   -0.49890  -0.49788  -0.49599  -0.49397  -0.49201
  Beta  occ. eigenvalues --   -0.48174  -0.48154  -0.48144  -0.47972  -0.47783
  Beta  occ. eigenvalues --   -0.47735  -0.47501  -0.47353  -0.45512  -0.44876
  Beta  occ. eigenvalues --   -0.43939  -0.42964  -0.42169  -0.41455  -0.41005
  Beta  occ. eigenvalues --   -0.40933  -0.40837  -0.40702  -0.40544  -0.40467
  Beta  occ. eigenvalues --   -0.40391  -0.40373  -0.40294  -0.40258  -0.40125
  Beta  occ. eigenvalues --   -0.39844  -0.39720  -0.39244  -0.38591  -0.37640
  Beta  occ. eigenvalues --   -0.37595  -0.37578  -0.37524  -0.37342  -0.37125
  Beta  occ. eigenvalues --   -0.36947  -0.36051  -0.34879  -0.33456  -0.32181
  Beta  occ. eigenvalues --   -0.31073  -0.30013  -0.29505
  Beta virt. eigenvalues --   -0.03011  -0.02341  -0.01317  -0.00237   0.00840
  Beta virt. eigenvalues --    0.02102   0.02949   0.04906   0.05937   0.06502
  Beta virt. eigenvalues --    0.07366   0.07938   0.08376   0.08742   0.09003

 Mulliken charges and spin densities:
               1          2
     1  C   -0.137002  -0.000000
     2  C    0.045146   0.000000
     3  C    0.102461  -0.000000
     4  F   -0.118639   0.000000
     5  C   -0.192452  -0.000000
     6  S    0.228965   0.000000
     7  C    0.057905   0.000000
     8  N   -0.198491   0.000000
     9  C    0.134246   0.000000
    10  C   -0.199164  -0.000000
    11  S    0.197521   0.000000
    12  C   -0.140236   0.000000
    13  C    0.033797  -0.000000
    14  C    0.121045   0.000000
    15  F   -0.116514  -0.000000
    16  C   -0.187877  -0.000000
    17  S    0.249074  -0.000000
    18  C    0.051912  -0.000000
    19  N   -0.198428   0.000000
    20  C    0.130874  -0.000000
    21  C   -0.193521   0.000000
    22  S    0.187462   0.000000
    23  C   -0.138509  -0.000000
    24  C    0.032123  -0.000000
    25  C    0.120441  -0.000000
    26  F   -0.114709  -0.000000
    27  C   -0.186353   0.000000
    28  S    0.242558   0.000000
    29  C    0.049947  -0.000000
    30  N   -0.199430   0.000000
    31  C    0.135872  -0.000000
    32  C   -0.198681  -0.000000
    33  S    0.199228   0.000000
    34  C   -0.141925   0.000000
    35  C    0.034252  -0.000000
    36  C    0.121354  -0.000000
    37  F   -0.115640  -0.000000
    38  C   -0.187093   0.000000
    39  S    0.248988   0.000000
    40  C    0.049797  -0.000000
    41  N   -0.198755   0.000000
    42  C    0.137336  -0.000000
    43  C   -0.197167   0.000000
    44  S    0.196361   0.000000
    45  C   -0.133784  -0.000000
    46  C    0.023980   0.000000
    47  C    0.167582  -0.000000
    48  F   -0.092102   0.000000
    49  C   -0.199708   0.000000
    50  S    0.204374   0.000000
    51  C    0.031163  -0.000000
    52  N   -0.176224   0.000000
    53  C    0.123309   0.000000
    54  C   -0.187690   0.000000
    55  S    0.169455   0.000000
    56  C   -0.138614  -0.000000
    57  C    0.031726   0.000000
    58  C    0.119694  -0.000000
    59  F   -0.114830   0.000000
    60  C   -0.185326   0.000000
    61  S    0.243015   0.000000
    62  C    0.048421   0.000000
    63  N   -0.199721   0.000000
    64  C    0.134334  -0.000000
    65  C   -0.196049   0.000000
    66  S    0.198804  -0.000000
    67  C   -0.144542  -0.000000
    68  C    0.031589   0.000000
    69  C    0.121690   0.000000
    70  F   -0.118071   0.000000
    71  C   -0.175574   0.000000
    72  S    0.244667  -0.000000
    73  C    0.026272  -0.000000
    74  N   -0.204141   0.000000
    75  C    0.113576  -0.000000
    76  C   -0.192094  -0.000000
    77  S    0.176785   0.000000
    78  H    0.054268  -0.000000
    79  H    0.029956   0.000000
    80  H    0.026913   0.000000
    81  H    0.025598  -0.000000
    82  H    0.034945   0.000000
    83  H    0.030651  -0.000000
    84  H    0.027693  -0.000000
    85  H    0.026075   0.000000
    86  H    0.029086   0.000000
    87  H    0.025919   0.000000
    88  H    0.035014   0.000000
    89  H    0.029648  -0.000000
    90  H    0.026826  -0.000000
    91  H    0.023710  -0.000000
    92  H    0.024104  -0.000000
    93  H    0.049545   0.000000
 Sum of Mulliken charges =  -0.00000  -0.00000

 Dipole moment (field-independent basis, Debye):
    X=             -5.5023    Y=              1.8423    Z=              0.6198  Tot=              5.8355
 Quadrupole moment (field-independent basis, Debye-Ang):
   XX=           -375.5317   YY=           -510.2531   ZZ=           -526.1946
   XY=              8.8181   XZ=            -11.7462   YZ=              8.1093

 Normal termination of Gaussian 16 at Thu Jul 23 20:19:42 2020.
