 Gaussian 16, Revision A.03,
 Gaussian 16:  EM64L-G16RevA.03 25-Dec-2016

 ---------------------------------------------------------------
 #P uLC-wPBE/cc-pVDZ iop(3/107=0121100000, 3/108=0121100000) opt
 ---------------------------------------------------------------

 -----------
 H6 C8 S1 N2
 -----------
 Symbolic Z-matrix:
 Charge =  0 Multiplicity = 1

 SCF Done:  E(ULC-wPBE) =  -815.578073191     A.U. after   16 cycles
 SCF Done:  E(ULC-wPBE) =  -815.611463340     A.U. after   14 cycles
 SCF Done:  E(ULC-wPBE) =  -815.618803525     A.U. after   14 cycles
 SCF Done:  E(ULC-wPBE) =  -815.619396709     A.U. after   13 cycles
 SCF Done:  E(ULC-wPBE) =  -815.619495005     A.U. after   13 cycles
 SCF Done:  E(ULC-wPBE) =  -815.619535520     A.U. after   11 cycles
 SCF Done:  E(ULC-wPBE) =  -815.619542687     A.U. after   10 cycles
 SCF Done:  E(ULC-wPBE) =  -815.619543848     A.U. after    9 cycles
 Optimization completed.
    -- Stationary point found.

                         Standard orientation:
 ---------------------------------------------------------------------
 Center     Atomic      Atomic             Coordinates (Angstroms)
 Number     Number       Type             X           Y           Z
 ---------------------------------------------------------------------
      1          6           0        3.454494   -0.012833    0.001682
      2          6           0        2.729725   -1.210856   -0.013127
      3          6           0        1.333381   -1.151135   -0.015169
      4          6           0        0.704372    0.111901   -0.001528
      5          7           0        1.395372    1.273247    0.012436
      6          6           0        2.734282    1.191580    0.013308
      7          6           0       -0.772334    0.237576   -0.002982
      8          7           0       -1.425630    1.378434   -0.015619
      9          6           0       -2.780450    1.169967   -0.012527
     10          6           0       -3.197402   -0.144036    0.002128
     11         16           0       -1.822315   -1.193444    0.014385
     12          1           0        4.553217   -0.007610    0.003963
     13          1           0        3.244184   -2.182161   -0.023390
     14          1           0        0.739279   -2.076437   -0.028640
     15          1           0        3.268657    2.156543    0.024819
     16          1           0       -3.456535    2.034772   -0.022448
     17          1           0       -4.216378   -0.544758    0.007102
 ---------------------------------------------------------------------

 The electronic state is 1-A.
 Alpha  occ. eigenvalues --  -88.17804 -14.06834 -14.06730 -10.03092 -10.02174
 Alpha  occ. eigenvalues --  -10.00630 -10.00415 -10.00004  -9.99590  -9.98953
 Alpha  occ. eigenvalues --   -9.98562  -7.78118  -5.80145  -5.79736  -5.79415
 Alpha  occ. eigenvalues --   -0.95462  -0.92981  -0.80745  -0.79767  -0.78642
 Alpha  occ. eigenvalues --   -0.72922  -0.65324  -0.64468  -0.59714  -0.57415
 Alpha  occ. eigenvalues --   -0.53423  -0.51129  -0.50235  -0.48102  -0.45163
 Alpha  occ. eigenvalues --   -0.44623  -0.43433  -0.42183  -0.41985  -0.40175
 Alpha  occ. eigenvalues --   -0.38203  -0.33604  -0.32279  -0.31732  -0.29568
 Alpha  occ. eigenvalues --   -0.27641  -0.26804
 Alpha virt. eigenvalues --   -0.03184  -0.00040   0.03900   0.05123   0.08223
 Alpha virt. eigenvalues --    0.09749   0.11355   0.12828   0.13610   0.16006
 Alpha virt. eigenvalues --    0.16491   0.16839   0.18611   0.23138   0.26312

  Beta  occ. eigenvalues --  -88.17804 -14.06834 -14.06730 -10.03092 -10.02174
  Beta  occ. eigenvalues --  -10.00630 -10.00415 -10.00004  -9.99590  -9.98953
  Beta  occ. eigenvalues --   -9.98562  -7.78118  -5.80145  -5.79736  -5.79415
  Beta  occ. eigenvalues --   -0.95462  -0.92981  -0.80745  -0.79767  -0.78642
  Beta  occ. eigenvalues --   -0.72922  -0.65324  -0.64468  -0.59714  -0.57415
  Beta  occ. eigenvalues --   -0.53423  -0.51129  -0.50235  -0.48102  -0.45163
  Beta  occ. eigenvalues --   -0.44623  -0.43433  -0.42183  -0.41985  -0.40175
  Beta  occ. eigenvalues --   -0.38203  -0.33604  -0.32279  -0.31732  -0.29568
  Beta  occ. eigenvalues --   -0.27641  -0.26804
  Beta virt. eigenvalues --   -0.03184  -0.00040   0.03900   0.05123   0.08223
  Beta virt. eigenvalues --    0.09749   0.11355   0.12828   0.13610   0.16006
  Beta virt. eigenvalues --    0.16491   0.16839   0.18611   0.23138   0.26312

 Mulliken charges and spin densities:
               1          2
     1  C   -0.018042  -0.000000
     2  C    0.071976   0.000000
     3  C   -0.000285  -0.000000
     4  C    0.090409   0.000000
     5  N   -0.169659  -0.000000
     6  C    0.086910   0.000000
     7  C   -0.021442  -0.000000
     8  N   -0.146902   0.000000
     9  C    0.122758  -0.000000
    10  C   -0.150790   0.000000
    11  S    0.128154  -0.000000
    12  H   -0.011134  -0.000000
    13  H   -0.008099  -0.000000
    14  H   -0.005700   0.000000
    15  H    0.003160  -0.000000
    16  H    0.002836  -0.000000
    17  H    0.025851  -0.000000
 Sum of Mulliken charges =  -0.00000  -0.00000

 Dipole moment (field-independent basis, Debye):
    X=              0.4332    Y=             -2.4775    Z=             -0.0061  Tot=              2.5151
 Quadrupole moment (field-independent basis, Debye-Ang):
   XX=            -51.8470   YY=            -69.4940   ZZ=            -72.8469
   XY=             -1.1568   XZ=             -0.0079   YZ=              0.0419

 Normal termination of Gaussian 16 at Thu Jul 23 17:43:16 2020.
