 Gaussian 16, Revision A.03,
 Gaussian 16:  EM64L-G16RevA.03 25-Dec-2016

 ---------------------------------------------------------------
 #P uLC-wPBE/cc-pVDZ iop(3/107=0124000000, 3/108=0124000000) opt
 ---------------------------------------------------------------

 ----------
 H14 C24 S6
 ----------
 Symbolic Z-matrix:
 Charge =  0 Multiplicity = 1

 SCF Done:  E(ULC-wPBE) =  -3310.33433584     A.U. after   16 cycles
 SCF Done:  E(ULC-wPBE) =  -3310.38741084     A.U. after   14 cycles
 SCF Done:  E(ULC-wPBE) =  -3310.40859617     A.U. after   14 cycles
 SCF Done:  E(ULC-wPBE) =  -3310.40955083     A.U. after   13 cycles
 SCF Done:  E(ULC-wPBE) =  -3310.40980278     A.U. after   12 cycles
 SCF Done:  E(ULC-wPBE) =  -3310.40991592     A.U. after   11 cycles
 SCF Done:  E(ULC-wPBE) =  -3310.40992183     A.U. after   10 cycles
 SCF Done:  E(ULC-wPBE) =  -3310.40992369     A.U. after    8 cycles
 SCF Done:  E(ULC-wPBE) =  -3310.40992406     A.U. after    7 cycles
 SCF Done:  E(ULC-wPBE) =  -3310.40992486     A.U. after    9 cycles
 SCF Done:  E(ULC-wPBE) =  -3310.41024317     A.U. after   12 cycles
 SCF Done:  E(ULC-wPBE) =  -3310.41024817     A.U. after   11 cycles
 SCF Done:  E(ULC-wPBE) =  -3310.41025609     A.U. after   12 cycles
 SCF Done:  E(ULC-wPBE) =  -3310.41025547     A.U. after   12 cycles
 SCF Done:  E(ULC-wPBE) =  -3310.41025912     A.U. after   11 cycles
 SCF Done:  E(ULC-wPBE) =  -3310.41025607     A.U. after   11 cycles
 SCF Done:  E(ULC-wPBE) =  -3310.41026066     A.U. after   12 cycles
 SCF Done:  E(ULC-wPBE) =  -3310.41026075     A.U. after   10 cycles
 SCF Done:  E(ULC-wPBE) =  -3310.41026087     A.U. after    9 cycles
 SCF Done:  E(ULC-wPBE) =  -3310.41026096     A.U. after    7 cycles
 Optimization completed.
    -- Stationary point found.

                         Standard orientation:
 ---------------------------------------------------------------------
 Center     Atomic      Atomic             Coordinates (Angstroms)
 Number     Number       Type             X           Y           Z
 ---------------------------------------------------------------------
      1          6           0       11.015733   -0.052278   -0.547922
      2          6           0       10.535548   -1.329788   -0.353442
      3          6           0        9.128470   -1.361723   -0.128442
      4          6           0        8.538191   -0.104980   -0.153457
      5         16           0        9.746119    1.128024   -0.473198
      6          6           0        7.143840    0.259619    0.035220
      7          6           0        6.592982    1.487586    0.377609
      8          6           0        5.177918    1.463888    0.488120
      9          6           0        4.621930    0.216370    0.232825
     10         16           0        5.878879   -0.937317   -0.180860
     11          6           0        3.230709   -0.193706    0.263670
     12          6           0        2.690619   -1.472466    0.328387
     13          6           0        1.272030   -1.488557    0.356223
     14          6           0        0.700946   -0.222333    0.313411
     15         16           0        1.950610    1.006562    0.207901
     16          6           0       -0.698986    0.155964    0.337942
     17          6           0       -1.272414    1.393125    0.606002
     18          6           0       -2.690284    1.384701    0.553073
     19          6           0       -3.227878    0.141213    0.243349
     20         16           0       -1.945140   -1.030119   -0.012749
     21          6           0       -4.617914   -0.253965    0.116314
     22          6           0       -5.170885   -1.528187    0.082620
     23          6           0       -6.582980   -1.530579   -0.061899
     24          6           0       -7.136028   -0.258953   -0.136322
     25         16           0       -5.878204    0.960193   -0.027140
     26          6           0       -8.528222    0.133497   -0.279557
     27          6           0       -9.060588    1.347905   -0.692170
     28          6           0      -10.485625    1.362359   -0.714072
     29          6           0      -11.037229    0.161774   -0.320683
     30         16           0       -9.816444   -0.998354    0.096611
     31          1           0       12.045211    0.271023   -0.733326
     32          1           0       11.174968   -2.220886   -0.363188
     33          1           0        8.558751   -2.278717    0.068683
     34          1           0        7.205899    2.376852    0.571279
     35          1           0        4.573593    2.333048    0.776987
     36          1           0        3.312397   -2.374932    0.382402
     37          1           0        0.673595   -2.404986    0.434070
     38          1           0       -0.676622    2.278446    0.861412
     39          1           0       -3.313287    2.263536    0.761840
     40          1           0       -4.564979   -2.439047    0.168200
     41          1           0       -7.188997   -2.443358   -0.121362
     42          1           0       -8.433798    2.198200   -0.989699
     43          1           0      -11.085048    2.228971   -1.018453
     44          1           0      -12.094098   -0.114916   -0.248672
 ---------------------------------------------------------------------

 The electronic state is 1-A.
 Alpha  occ. eigenvalues --  -88.17694 -88.17688 -88.17636 -88.17615 -88.17538
 Alpha  occ. eigenvalues --  -88.17537 -10.01692 -10.01686 -10.01685 -10.01678
 Alpha  occ. eigenvalues --  -10.01607 -10.01607 -10.01597 -10.01597 -10.01388
 Alpha  occ. eigenvalues --  -10.01387 -10.00136 -10.00133  -9.98354  -9.98354
 Alpha  occ. eigenvalues --   -9.98328  -9.98328  -9.98293  -9.98285  -9.98239
 Alpha  occ. eigenvalues --   -9.98231  -9.98099  -9.98099  -9.98040  -9.98039
 Alpha  occ. eigenvalues --   -7.77993  -7.77988  -7.77934  -7.77916  -7.77831
 Alpha  occ. eigenvalues --   -7.77829  -5.80085  -5.80081  -5.80025  -5.80008
 Alpha  occ. eigenvalues --   -5.79904  -5.79903  -5.79637  -5.79633  -5.79577
 Alpha  occ. eigenvalues --   -5.79560  -5.79453  -5.79452  -5.79188  -5.79183
 Alpha  occ. eigenvalues --   -5.79134  -5.79113  -5.79070  -5.79069  -0.90146
 Alpha  occ. eigenvalues --   -0.89658  -0.88964  -0.88097  -0.87185  -0.86556
 Alpha  occ. eigenvalues --   -0.79579  -0.77973  -0.76190  -0.75502  -0.75052
 Alpha  occ. eigenvalues --   -0.74918  -0.74219  -0.74145  -0.73741  -0.72510
 Alpha  occ. eigenvalues --   -0.70382  -0.68782  -0.63674  -0.62619  -0.61345
 Alpha  occ. eigenvalues --   -0.60013  -0.58633  -0.57455  -0.56781  -0.55590
 Alpha  occ. eigenvalues --   -0.54998  -0.54796  -0.54572  -0.54531  -0.54372
 Alpha  occ. eigenvalues --   -0.53759  -0.51779  -0.49186  -0.47440  -0.46958
 Alpha  occ. eigenvalues --   -0.44533  -0.44497  -0.44313  -0.43944  -0.43756
 Alpha  occ. eigenvalues --   -0.43534  -0.43167  -0.42961  -0.42897  -0.42180
 Alpha  occ. eigenvalues --   -0.42158  -0.41926  -0.41120  -0.40826  -0.40808
 Alpha  occ. eigenvalues --   -0.40462  -0.40394  -0.39624  -0.39231  -0.38819
 Alpha  occ. eigenvalues --   -0.38090  -0.37468  -0.37061  -0.36764  -0.36599
 Alpha  occ. eigenvalues --   -0.34236  -0.32309  -0.30168  -0.30113  -0.29712
 Alpha  occ. eigenvalues --   -0.29608  -0.29397  -0.29254  -0.29148  -0.27007
 Alpha  occ. eigenvalues --   -0.24245  -0.21854
 Alpha virt. eigenvalues --   -0.04798  -0.02568  -0.00256   0.01840   0.03514
 Alpha virt. eigenvalues --    0.04406   0.04726   0.04839   0.05066   0.05342
 Alpha virt. eigenvalues --    0.05851   0.06370   0.07571   0.07744   0.09204

  Beta  occ. eigenvalues --  -88.17694 -88.17688 -88.17636 -88.17615 -88.17538
  Beta  occ. eigenvalues --  -88.17537 -10.01692 -10.01686 -10.01685 -10.01678
  Beta  occ. eigenvalues --  -10.01607 -10.01607 -10.01597 -10.01597 -10.01388
  Beta  occ. eigenvalues --  -10.01387 -10.00136 -10.00133  -9.98354  -9.98354
  Beta  occ. eigenvalues --   -9.98328  -9.98328  -9.98293  -9.98285  -9.98239
  Beta  occ. eigenvalues --   -9.98231  -9.98099  -9.98099  -9.98040  -9.98039
  Beta  occ. eigenvalues --   -7.77993  -7.77988  -7.77934  -7.77916  -7.77831
  Beta  occ. eigenvalues --   -7.77829  -5.80085  -5.80081  -5.80025  -5.80008
  Beta  occ. eigenvalues --   -5.79904  -5.79903  -5.79637  -5.79633  -5.79577
  Beta  occ. eigenvalues --   -5.79560  -5.79453  -5.79452  -5.79188  -5.79183
  Beta  occ. eigenvalues --   -5.79134  -5.79113  -5.79070  -5.79069  -0.90146
  Beta  occ. eigenvalues --   -0.89658  -0.88964  -0.88097  -0.87185  -0.86556
  Beta  occ. eigenvalues --   -0.79579  -0.77973  -0.76190  -0.75502  -0.75052
  Beta  occ. eigenvalues --   -0.74918  -0.74219  -0.74145  -0.73741  -0.72510
  Beta  occ. eigenvalues --   -0.70382  -0.68782  -0.63674  -0.62619  -0.61345
  Beta  occ. eigenvalues --   -0.60013  -0.58633  -0.57455  -0.56781  -0.55590
  Beta  occ. eigenvalues --   -0.54998  -0.54796  -0.54572  -0.54531  -0.54372
  Beta  occ. eigenvalues --   -0.53759  -0.51779  -0.49186  -0.47440  -0.46958
  Beta  occ. eigenvalues --   -0.44533  -0.44497  -0.44313  -0.43944  -0.43756
  Beta  occ. eigenvalues --   -0.43534  -0.43167  -0.42961  -0.42897  -0.42180
  Beta  occ. eigenvalues --   -0.42158  -0.41926  -0.41120  -0.40826  -0.40808
  Beta  occ. eigenvalues --   -0.40462  -0.40394  -0.39624  -0.39231  -0.38819
  Beta  occ. eigenvalues --   -0.38090  -0.37468  -0.37061  -0.36764  -0.36599
  Beta  occ. eigenvalues --   -0.34236  -0.32309  -0.30168  -0.30113  -0.29712
  Beta  occ. eigenvalues --   -0.29608  -0.29397  -0.29254  -0.29148  -0.27007
  Beta  occ. eigenvalues --   -0.24245  -0.21854
  Beta virt. eigenvalues --   -0.04798  -0.02568  -0.00256   0.01840   0.03514
  Beta virt. eigenvalues --    0.04406   0.04726   0.04839   0.05066   0.05342
  Beta virt. eigenvalues --    0.05851   0.06370   0.07571   0.07744   0.09204

 Mulliken charges and spin densities:
               1          2
     1  C   -0.122972   0.000000
     2  C    0.074816  -0.000000
     3  C    0.011463  -0.000000
     4  C   -0.112868  -0.000000
     5  S    0.145856  -0.000000
     6  C   -0.084406  -0.000000
     7  C    0.041977   0.000000
     8  C    0.035632  -0.000000
     9  C   -0.100203   0.000000
    10  S    0.143686   0.000000
    11  C   -0.096214  -0.000000
    12  C    0.038588   0.000000
    13  C    0.037756  -0.000000
    14  C   -0.097879   0.000000
    15  S    0.142338  -0.000000
    16  C   -0.097685  -0.000000
    17  C    0.038745   0.000000
    18  C    0.037020  -0.000000
    19  C   -0.095642  -0.000000
    20  S    0.141138  -0.000000
    21  C   -0.098491   0.000000
    22  C    0.034923   0.000000
    23  C    0.042006  -0.000000
    24  C   -0.082979   0.000000
    25  S    0.140123   0.000000
    26  C   -0.112761  -0.000000
    27  C    0.010325  -0.000000
    28  C    0.075412   0.000000
    29  C   -0.122742  -0.000000
    30  S    0.145068   0.000000
    31  H    0.021582  -0.000000
    32  H   -0.012451  -0.000000
    33  H   -0.011704  -0.000000
    34  H   -0.014379   0.000000
    35  H   -0.013602  -0.000000
    36  H   -0.013578  -0.000000
    37  H   -0.013298  -0.000000
    38  H   -0.013478   0.000000
    39  H   -0.012254  -0.000000
    40  H   -0.013318  -0.000000
    41  H   -0.014248  -0.000000
    42  H   -0.010373  -0.000000
    43  H   -0.012537   0.000000
    44  H    0.021608   0.000000
 Sum of Mulliken charges =  -0.00000   0.00000

 Dipole moment (field-independent basis, Debye):
    X=              0.0295    Y=             -0.0484    Z=              0.1748  Tot=              0.1838
 Quadrupole moment (field-independent basis, Debye-Ang):
   XX=           -167.4638   YY=           -195.6740   ZZ=           -224.9514
   XY=             -4.8606   XZ=              1.6715   YZ=              0.0299

 Normal termination of Gaussian 16 at Fri Jul 24 15:37:02 2020.
