 Gaussian 16, Revision A.03,
 Gaussian 16:  EM64L-G16RevA.03 25-Dec-2016

 ---------------------------------------------------------------
 #P uLC-wPBE/cc-pVDZ iop(3/107=0399400000, 3/108=0399400000) opt
 ---------------------------------------------------------------

 -------------
 H29 C39 O3 F3
 -------------
 Symbolic Z-matrix:
 Charge =  0 Multiplicity = 1

 SCF Done:  E(ULC-wPBE) =  -2027.36629820     A.U. after   17 cycles
 SCF Done:  E(ULC-wPBE) =  -2027.43546812     A.U. after   14 cycles
 SCF Done:  E(ULC-wPBE) =  -2027.48330430     A.U. after   15 cycles
 SCF Done:  E(ULC-wPBE) =  -2027.49900730     A.U. after   14 cycles
 SCF Done:  E(ULC-wPBE) =  -2027.50210030     A.U. after   15 cycles
 SCF Done:  E(ULC-wPBE) =  -2027.50268134     A.U. after   15 cycles
 SCF Done:  E(ULC-wPBE) =  -2027.50296460     A.U. after   13 cycles
 SCF Done:  E(ULC-wPBE) =  -2027.50303727     A.U. after   11 cycles
 SCF Done:  E(ULC-wPBE) =  -2027.50306448     A.U. after   11 cycles
 SCF Done:  E(ULC-wPBE) =  -2027.50307432     A.U. after   11 cycles
 SCF Done:  E(ULC-wPBE) =  -2027.50307806     A.U. after   10 cycles
 SCF Done:  E(ULC-wPBE) =  -2027.50307915     A.U. after    8 cycles
 SCF Done:  E(ULC-wPBE) =  -2027.50307964     A.U. after    7 cycles
 SCF Done:  E(ULC-wPBE) =  -2027.50307975     A.U. after    7 cycles
 SCF Done:  E(ULC-wPBE) =  -2027.50307978     A.U. after    6 cycles
 Optimization completed.
    -- Stationary point found.

                         Standard orientation:
 ---------------------------------------------------------------------
 Center     Atomic      Atomic             Coordinates (Angstroms)
 Number     Number       Type             X           Y           Z
 ---------------------------------------------------------------------
      1          6           0       12.282381   -0.493769   -0.228669
      2          6           0       11.570476   -0.977035    0.858724
      3          6           0       10.190139   -0.877018    0.855390
      4          9           0        9.521257   -1.354169    1.920677
      5          6           0        9.476292   -0.308594   -0.194832
      6          6           0       10.221246    0.172866   -1.273304
      7          6           0       11.605016    0.081330   -1.297736
      8          6           0        7.992145   -0.249162   -0.168687
      9          6           0        7.240773   -1.391782    0.078017
     10          6           0        5.852533   -1.368764    0.092450
     11          6           0        5.176270   -0.175457   -0.135111
     12          6           0        5.914305    0.985360   -0.377409
     13          6           0        7.304546    0.955663   -0.397046
     14          8           0        8.070830    2.048615   -0.633536
     15          6           0        7.430778    3.288465   -0.814089
     16          6           0        3.692212   -0.123461   -0.121135
     17          6           0        2.944261   -1.124179   -0.735651
     18          6           0        1.563283   -1.061183   -0.715153
     19          9           0        0.884425   -2.045453   -1.331535
     20          6           0        0.858177   -0.032990   -0.098420
     21          6           0        1.624999    0.957262    0.518321
     22          6           0        3.009811    0.920886    0.506493
     23          6           0       -0.625605    0.010726   -0.125811
     24          6           0       -1.317942   -0.122244   -1.323568
     25          6           0       -2.704385   -0.074274   -1.379613
     26          6           0       -3.440246    0.107788   -0.213989
     27          6           0       -2.762409    0.237715    1.000438
     28          6           0       -1.373598    0.189698    1.051466
     29          8           0       -0.665255    0.296670    2.202157
     30          6           0       -1.370149    0.417362    3.414163
     31          6           0       -4.923753    0.162988   -0.249839
     32          6           0       -5.619680    1.097771    0.512220
     33          6           0       -7.001013    1.134790    0.463024
     34          9           0       -7.627298    2.062352    1.209739
     35          6           0       -7.756513    0.269802   -0.320882
     36          6           0       -7.041815   -0.663521   -1.073855
     37          6           0       -5.657805   -0.717942   -1.046833
     38          6           0       -9.238375    0.363838   -0.367564
     39          6           0       -9.860177    1.578938   -0.632529
     40          6           0      -11.244119    1.692600   -0.695772
     41          6           0      -12.023886    0.568462   -0.483363
     42          6           0      -11.431482   -0.659873   -0.209984
     43          6           0      -10.044786   -0.767811   -0.151020
     44          8           0       -9.393121   -1.927385    0.113572
     45          6           0      -10.158616   -3.075072    0.388556
     46          1           0       13.370973   -0.568086   -0.239580
     47          1           0       12.062319   -1.432068    1.718627
     48          1           0        9.690260    0.628691   -2.108929
     49          1           0       12.158406    0.461488   -2.157492
     50          1           0        7.763813   -2.329497    0.268987
     51          1           0        5.295399   -2.281652    0.306234
     52          1           0        5.381207    1.913945   -0.575329
     53          1           0        6.835110    3.570105    0.069077
     54          1           0        6.780291    3.287124   -1.703693
     55          1           0        8.228984    4.025419   -0.956410
     56          1           0        3.420714   -1.955884   -1.255144
     57          1           0        1.110449    1.772582    1.026352
     58          1           0        3.573026    1.704769    1.015034
     59          1           0       -0.748549   -0.259399   -2.243476
     60          1           0       -3.212929   -0.155494   -2.340877
     61          1           0       -3.342233    0.350001    1.915272
     62          1           0       -2.022234   -0.452544    3.592734
     63          1           0       -1.977085    1.336777    3.444003
     64          1           0       -0.612063    0.463916    4.203814
     65          1           0       -5.102289    1.825552    1.137907
     66          1           0       -7.597805   -1.368822   -1.691214
     67          1           0       -5.136160   -1.471957   -1.637837
     68          1           0       -9.236327    2.458625   -0.795842
     69          1           0      -11.705450    2.657181   -0.909990
     70          1           0      -13.112382    0.636273   -0.527887
     71          1           0      -12.062404   -1.531179   -0.041604
     72          1           0      -10.783238   -3.365669   -0.471792
     73          1           0      -10.802867   -2.931725    1.270977
     74          1           0       -9.441743   -3.877323    0.596230
 ---------------------------------------------------------------------

 The electronic state is 1-A.
 Alpha  occ. eigenvalues --  -24.49500 -24.49490 -24.49349 -19.01548 -19.01522
 Alpha  occ. eigenvalues --  -19.01437 -10.20203 -10.20176 -10.20032 -10.18699
 Alpha  occ. eigenvalues --  -10.18655 -10.18513 -10.17668 -10.17645 -10.17634
 Alpha  occ. eigenvalues --  -10.13959 -10.13931 -10.13753 -10.13725 -10.13588
 Alpha  occ. eigenvalues --  -10.13519 -10.13506 -10.13188 -10.13117 -10.13072
 Alpha  occ. eigenvalues --  -10.12905 -10.12823 -10.12743 -10.12645 -10.12609
 Alpha  occ. eigenvalues --  -10.12562 -10.12513 -10.12504 -10.12459 -10.12431
 Alpha  occ. eigenvalues --  -10.12384 -10.12198 -10.12190 -10.12168 -10.12104
 Alpha  occ. eigenvalues --  -10.12094 -10.12079 -10.11644 -10.11613 -10.11495
 Alpha  occ. eigenvalues --   -1.34147  -1.34131  -1.33990  -1.21273  -1.21254
 Alpha  occ. eigenvalues --   -1.21159  -1.03490  -1.03099  -1.02296  -1.01547
 Alpha  occ. eigenvalues --   -1.00634  -0.99902  -0.95788  -0.94187  -0.92268
 Alpha  occ. eigenvalues --   -0.90415  -0.90272  -0.90042  -0.89669  -0.89380
 Alpha  occ. eigenvalues --   -0.89222  -0.89026  -0.87589  -0.86378  -0.84508
 Alpha  occ. eigenvalues --   -0.84153  -0.83292  -0.79362  -0.77145  -0.76325
 Alpha  occ. eigenvalues --   -0.75938  -0.75544  -0.74521  -0.73762  -0.73449
 Alpha  occ. eigenvalues --   -0.72583  -0.72418  -0.71802  -0.71387  -0.68310
 Alpha  occ. eigenvalues --   -0.67954  -0.67112  -0.66707  -0.64645  -0.63920
 Alpha  occ. eigenvalues --   -0.63534  -0.63002  -0.62630  -0.62003  -0.61880
 Alpha  occ. eigenvalues --   -0.61676  -0.61201  -0.60851  -0.60752  -0.60335
 Alpha  occ. eigenvalues --   -0.60266  -0.60124  -0.59736  -0.59164  -0.59037
 Alpha  occ. eigenvalues --   -0.59013  -0.58910  -0.57793  -0.57017  -0.56272
 Alpha  occ. eigenvalues --   -0.56069  -0.55649  -0.55620  -0.55245  -0.54657
 Alpha  occ. eigenvalues --   -0.53935  -0.53771  -0.53739  -0.52733  -0.52425
 Alpha  occ. eigenvalues --   -0.52219  -0.51692  -0.51479  -0.51051  -0.50790
 Alpha  occ. eigenvalues --   -0.50060  -0.49814  -0.49530  -0.49082  -0.48926
 Alpha  occ. eigenvalues --   -0.48145  -0.47929  -0.47802  -0.47243  -0.47027
 Alpha  occ. eigenvalues --   -0.46919  -0.46414  -0.46110  -0.45919  -0.44560
 Alpha  occ. eigenvalues --   -0.44428  -0.44288  -0.44046  -0.43367  -0.42950
 Alpha  occ. eigenvalues --   -0.39690  -0.38461  -0.36791  -0.35575  -0.35279
 Alpha  occ. eigenvalues --   -0.35189  -0.34584  -0.33971  -0.33804  -0.32364
 Alpha  occ. eigenvalues --   -0.31336  -0.30075
 Alpha virt. eigenvalues --    0.02415   0.04227   0.06807   0.08028   0.08158
 Alpha virt. eigenvalues --    0.08268   0.08671   0.08709   0.08847   0.09278
 Alpha virt. eigenvalues --    0.11251   0.12861   0.15210   0.15383   0.15519

  Beta  occ. eigenvalues --  -24.49500 -24.49490 -24.49349 -19.01548 -19.01522
  Beta  occ. eigenvalues --  -19.01437 -10.20203 -10.20176 -10.20032 -10.18699
  Beta  occ. eigenvalues --  -10.18655 -10.18513 -10.17668 -10.17645 -10.17634
  Beta  occ. eigenvalues --  -10.13959 -10.13931 -10.13753 -10.13725 -10.13588
  Beta  occ. eigenvalues --  -10.13519 -10.13506 -10.13188 -10.13117 -10.13072
  Beta  occ. eigenvalues --  -10.12905 -10.12823 -10.12743 -10.12645 -10.12609
  Beta  occ. eigenvalues --  -10.12562 -10.12513 -10.12504 -10.12459 -10.12431
  Beta  occ. eigenvalues --  -10.12384 -10.12198 -10.12190 -10.12168 -10.12104
  Beta  occ. eigenvalues --  -10.12094 -10.12079 -10.11644 -10.11613 -10.11495
  Beta  occ. eigenvalues --   -1.34147  -1.34131  -1.33990  -1.21273  -1.21254
  Beta  occ. eigenvalues --   -1.21159  -1.03490  -1.03099  -1.02296  -1.01547
  Beta  occ. eigenvalues --   -1.00634  -0.99902  -0.95788  -0.94187  -0.92268
  Beta  occ. eigenvalues --   -0.90415  -0.90272  -0.90042  -0.89669  -0.89380
  Beta  occ. eigenvalues --   -0.89222  -0.89026  -0.87589  -0.86378  -0.84508
  Beta  occ. eigenvalues --   -0.84153  -0.83292  -0.79362  -0.77145  -0.76325
  Beta  occ. eigenvalues --   -0.75938  -0.75544  -0.74521  -0.73762  -0.73449
  Beta  occ. eigenvalues --   -0.72583  -0.72418  -0.71802  -0.71387  -0.68310
  Beta  occ. eigenvalues --   -0.67954  -0.67112  -0.66707  -0.64645  -0.63920
  Beta  occ. eigenvalues --   -0.63534  -0.63002  -0.62630  -0.62003  -0.61880
  Beta  occ. eigenvalues --   -0.61676  -0.61201  -0.60851  -0.60752  -0.60335
  Beta  occ. eigenvalues --   -0.60266  -0.60124  -0.59736  -0.59164  -0.59037
  Beta  occ. eigenvalues --   -0.59013  -0.58910  -0.57793  -0.57017  -0.56272
  Beta  occ. eigenvalues --   -0.56069  -0.55649  -0.55620  -0.55245  -0.54657
  Beta  occ. eigenvalues --   -0.53935  -0.53771  -0.53739  -0.52733  -0.52425
  Beta  occ. eigenvalues --   -0.52219  -0.51692  -0.51479  -0.51051  -0.50790
  Beta  occ. eigenvalues --   -0.50060  -0.49814  -0.49530  -0.49082  -0.48926
  Beta  occ. eigenvalues --   -0.48145  -0.47929  -0.47802  -0.47243  -0.47027
  Beta  occ. eigenvalues --   -0.46919  -0.46414  -0.46110  -0.45919  -0.44560
  Beta  occ. eigenvalues --   -0.44428  -0.44288  -0.44046  -0.43367  -0.42950
  Beta  occ. eigenvalues --   -0.39690  -0.38461  -0.36791  -0.35575  -0.35279
  Beta  occ. eigenvalues --   -0.35189  -0.34584  -0.33971  -0.33804  -0.32364
  Beta  occ. eigenvalues --   -0.31336  -0.30075
  Beta virt. eigenvalues --    0.02415   0.04227   0.06807   0.08028   0.08158
  Beta virt. eigenvalues --    0.08268   0.08671   0.08709   0.08847   0.09278
  Beta virt. eigenvalues --    0.11251   0.12861   0.15210   0.15383   0.15519

 Mulliken charges and spin densities:
               1          2
     1  C    0.008995   0.000000
     2  C   -0.009823  -0.000000
     3  C    0.098819   0.000000
     4  F   -0.131798   0.000000
     5  C   -0.060619  -0.000000
     6  C    0.037906   0.000000
     7  C    0.002825  -0.000000
     8  C   -0.037811  -0.000000
     9  C    0.047587  -0.000000
    10  C   -0.009738   0.000000
    11  C   -0.001558   0.000000
    12  C   -0.047870  -0.000000
    13  C    0.121053   0.000000
    14  O   -0.251361   0.000000
    15  C    0.044781   0.000000
    16  C    0.000954   0.000000
    17  C   -0.008483  -0.000000
    18  C    0.108513   0.000000
    19  F   -0.130807  -0.000000
    20  C   -0.055884  -0.000000
    21  C    0.050214  -0.000000
    22  C   -0.003306  -0.000000
    23  C   -0.035982   0.000000
    24  C    0.043921   0.000000
    25  C   -0.010421  -0.000000
    26  C    0.001118  -0.000000
    27  C   -0.047857  -0.000000
    28  C    0.118637   0.000000
    29  O   -0.252082  -0.000000
    30  C    0.044551  -0.000000
    31  C    0.001187  -0.000000
    32  C   -0.012799   0.000000
    33  C    0.109120  -0.000000
    34  F   -0.131391   0.000000
    35  C   -0.055039   0.000000
    36  C    0.052213   0.000000
    37  C   -0.001870   0.000000
    38  C   -0.045487  -0.000000
    39  C    0.032280   0.000000
    40  C   -0.000548  -0.000000
    41  C    0.008915   0.000000
    42  C   -0.056957  -0.000000
    43  C    0.109002  -0.000000
    44  O   -0.251156   0.000000
    45  C    0.042698  -0.000000
    46  H    0.010462  -0.000000
    47  H    0.018379   0.000000
    48  H    0.001513   0.000000
    49  H    0.004636  -0.000000
    50  H    0.001205  -0.000000
    51  H   -0.003075   0.000000
    52  H    0.001395   0.000000
    53  H    0.050464   0.000000
    54  H    0.051978   0.000000
    55  H    0.062802   0.000000
    56  H    0.012587   0.000000
    57  H    0.001246   0.000000
    58  H   -0.003580   0.000000
    59  H    0.000670   0.000000
    60  H   -0.004363  -0.000000
    61  H    0.003096   0.000000
    62  H    0.054621   0.000000
    63  H    0.048993   0.000000
    64  H    0.063412   0.000000
    65  H    0.009102  -0.000000
    66  H    0.001867   0.000000
    67  H   -0.000384   0.000000
    68  H    0.000681  -0.000000
    69  H    0.001492  -0.000000
    70  H    0.005201  -0.000000
    71  H    0.006993  -0.000000
    72  H    0.049367  -0.000000
    73  H    0.051329   0.000000
    74  H    0.063266   0.000000
 Sum of Mulliken charges =  -0.00000   0.00000

 Dipole moment (field-independent basis, Debye):
    X=             -1.3002    Y=              0.6640    Z=              0.1206  Tot=              1.4649
 Quadrupole moment (field-independent basis, Debye-Ang):
   XX=           -212.0451   YY=           -237.4029   ZZ=           -246.9501
   XY=             30.9641   XZ=             -9.8666   YZ=             -1.8134

 Normal termination of Gaussian 16 at Sun Jul 26 14:37:15 2020.
