 Gaussian 16, Revision A.03,
 Gaussian 16:  EM64L-G16RevA.03 25-Dec-2016

 ---------------------------------------------------------------
 #P uLC-wPBE/cc-pVDZ iop(3/107=0422400000, 3/108=0422400000) opt
 ---------------------------------------------------------------

 -----------------
 H32 C45 S5 N10 O5
 -----------------
 Symbolic Z-matrix:
 Charge =  0 Multiplicity = 1

 SCF Done:  E(ULC-wPBE) =  -4646.07675193     A.U. after   16 cycles
 SCF Done:  E(ULC-wPBE) =  -4646.16794224     A.U. after   14 cycles
 SCF Done:  E(ULC-wPBE) =  -4646.24808670     A.U. after   14 cycles
 SCF Done:  E(ULC-wPBE) =  -4646.26791135     A.U. after   15 cycles
 SCF Done:  E(ULC-wPBE) =  -4646.27445242     A.U. after   15 cycles
 SCF Done:  E(ULC-wPBE) =  -4646.27807229     A.U. after   16 cycles
 SCF Done:  E(ULC-wPBE) =  -4646.28038631     A.U. after   15 cycles
 SCF Done:  E(ULC-wPBE) =  -4646.28127683     A.U. after   12 cycles
 SCF Done:  E(ULC-wPBE) =  -4646.28162847     A.U. after   13 cycles
 SCF Done:  E(ULC-wPBE) =  -4646.28174465     A.U. after   12 cycles
 SCF Done:  E(ULC-wPBE) =  -4646.28179160     A.U. after   12 cycles
 SCF Done:  E(ULC-wPBE) =  -4646.28180873     A.U. after   11 cycles
 SCF Done:  E(ULC-wPBE) =  -4646.28181533     A.U. after   10 cycles
 SCF Done:  E(ULC-wPBE) =  -4646.28181741     A.U. after   10 cycles
 SCF Done:  E(ULC-wPBE) =  -4646.28181825     A.U. after    8 cycles
 SCF Done:  E(ULC-wPBE) =  -4646.28181848     A.U. after    8 cycles
 SCF Done:  E(ULC-wPBE) =  -4646.28181870     A.U. after    8 cycles
 SCF Done:  E(ULC-wPBE) =  -4646.28181882     A.U. after    7 cycles
 SCF Done:  E(ULC-wPBE) =  -4646.28181891     A.U. after    6 cycles
 SCF Done:  E(ULC-wPBE) =  -4646.28181888     A.U. after    6 cycles
 Optimization completed.
    -- Stationary point found.

                         Standard orientation:
 ---------------------------------------------------------------------
 Center     Atomic      Atomic             Coordinates (Angstroms)
 Number     Number       Type             X           Y           Z
 ---------------------------------------------------------------------
      1          6           0      -18.357806   -2.510752   -1.861957
      2          6           0      -18.325389   -1.197792   -1.422256
      3          7           0      -17.212462   -0.594672   -1.027490
      4          6           0      -16.099082   -1.325530   -1.072881
      5          7           0      -16.015482   -2.598387   -1.478539
      6          6           0      -17.141292   -3.174832   -1.867607
      7          6           0      -14.836824   -0.721679   -0.652962
      8          6           0      -14.559091    0.543469   -0.182289
      9          8           0      -15.513967    1.471992   -0.028677
     10          6           0      -15.118300    2.730538    0.461219
     11          6           0      -13.177070    0.722840    0.117472
     12          6           0      -12.437738   -0.399991   -0.130922
     13         16           0      -13.403084   -1.678704   -0.736034
     14          6           0      -10.993875   -0.563349    0.064898
     15          6           0      -10.097439    0.488819   -0.111074
     16          7           0       -8.797263    0.364942    0.078300
     17          6           0       -8.348379   -0.843011    0.441847
     18          7           0       -9.107476   -1.922554    0.627198
     19          6           0      -10.408046   -1.769110    0.442801
     20          6           0       -6.906607   -0.943852    0.636641
     21          6           0       -6.125235   -2.016971    1.009595
     22          8           0       -6.650232   -3.221160    1.272856
     23          6           0       -5.761485   -4.247067    1.646190
     24          6           0       -4.741582   -1.683908    1.084834
     25          6           0       -4.500087   -0.375830    0.768654
     26         16           0       -5.939994    0.461133    0.369439
     27          6           0       -3.197662    0.296910    0.745148
     28          6           0       -3.027631    1.639332    1.075004
     29          7           0       -1.855288    2.251143    1.062672
     30          6           0       -0.801057    1.511083    0.720424
     31          7           0       -0.842146    0.215907    0.383027
     32          6           0       -2.025314   -0.368360    0.391737
     33          6           0        0.521805    2.123990    0.695127
     34          6           0        0.919063    3.411670    0.987304
     35          8           0        0.048824    4.352756    1.377401
     36          6           0        0.561875    5.634567    1.651906
     37          6           0        2.323952    3.596629    0.835636
     38          6           0        2.961531    2.456239    0.432629
     39         16           0        1.869643    1.153153    0.225353
     40          6           0        4.396755    2.293417    0.181553
     41          6           0        5.082519    1.105503    0.428452
     42          7           0        6.376356    0.964870    0.208791
     43          6           0        7.033165    2.030544   -0.265436
     44          7           0        6.483238    3.213418   -0.541768
     45          6           0        5.184283    3.325276   -0.322856
     46          6           0        8.461480    1.839966   -0.487279
     47          6           0        9.420212    2.712301   -0.957718
     48          8           0        9.127766    3.975861   -1.295522
     49          6           0       10.182332    4.778477   -1.770129
     50          6           0       10.713428    2.117632   -1.023558
     51          6           0       10.712555    0.815293   -0.606778
     52         16           0        9.149169    0.295014   -0.140191
     53          6           0       11.865400   -0.088453   -0.545688
     54          6           0       12.007552   -1.078614    0.423199
     55          7           0       13.048348   -1.891676    0.488368
     56          6           0       13.997139   -1.721583   -0.432425
     57          7           0       13.968374   -0.807225   -1.410667
     58          6           0       12.914066   -0.015577   -1.460430
     59          6           0       15.175424   -2.580971   -0.408440
     60          6           0       15.516892   -3.604697    0.450228
     61          8           0       14.728140   -3.972033    1.470442
     62          6           0       15.174676   -5.031422    2.281813
     63          6           0       16.774036   -4.196525    0.119436
     64          6           0       17.339420   -3.607851   -0.969226
     65         16           0       16.392672   -2.351027   -1.612119
     66          1           0      -19.280153   -2.990915   -2.182983
     67          1           0      -19.237702   -0.595218   -1.383542
     68          1           0      -17.064426   -4.214621   -2.198173
     69          1           0      -14.687952    2.656203    1.471717
     70          1           0      -14.393664    3.217725   -0.209188
     71          1           0      -16.026539    3.339570    0.505724
     72          1           0      -12.749735    1.633077    0.529862
     73          1           0      -10.451469    1.472432   -0.433118
     74          1           0      -11.028485   -2.654634    0.613384
     75          1           0       -5.027529   -4.456179    0.852942
     76          1           0       -6.375663   -5.138520    1.806586
     77          1           0       -5.231568   -4.004829    2.580087
     78          1           0       -3.958490   -2.372744    1.390478
     79          1           0       -3.887363    2.247460    1.373781
     80          1           0       -2.052086   -1.419338    0.089642
     81          1           0       -0.295475    6.250153    1.941132
     82          1           0        1.283663    5.613287    2.482699
     83          1           0        1.038533    6.078943    0.764768
     84          1           0        2.849078    4.524686    1.045464
     85          1           0        4.558175    0.233556    0.831525
     86          1           0        4.733351    4.289664   -0.575379
     87          1           0        9.743102    5.754221   -1.999770
     88          1           0       10.628011    4.362178   -2.686482
     89          1           0       10.966868    4.909441   -1.009183
     90          1           0       11.615241    2.637800   -1.335402
     91          1           0       11.240462   -1.212464    1.192666
     92          1           0       12.888270    0.710581   -2.278235
     93          1           0       14.403012   -5.177869    3.044047
     94          1           0       15.290325   -5.962720    1.706332
     95          1           0       16.126797   -4.789142    2.778497
     96          1           0       17.235046   -5.017514    0.661693
     97          1           0       18.290823   -3.867705   -1.426995
 ---------------------------------------------------------------------

 The electronic state is 1-A.
 Alpha  occ. eigenvalues --  -88.33448 -88.33416 -88.33351 -88.33265 -88.32857
 Alpha  occ. eigenvalues --  -19.02832 -19.02819 -19.02773 -19.02643 -19.02393
 Alpha  occ. eigenvalues --  -14.23623 -14.23564 -14.23546 -14.23343 -14.23173
 Alpha  occ. eigenvalues --  -14.23173 -14.23145 -14.23076 -14.22869 -14.22741
 Alpha  occ. eigenvalues --  -10.21743 -10.21721 -10.21673 -10.21471 -10.21440
 Alpha  occ. eigenvalues --  -10.20725 -10.20677 -10.20672 -10.20499 -10.20172
 Alpha  occ. eigenvalues --  -10.19196 -10.19122 -10.19103 -10.19027 -10.19009
 Alpha  occ. eigenvalues --  -10.19007 -10.18989 -10.18953 -10.18939 -10.18896
 Alpha  occ. eigenvalues --  -10.18866 -10.18742 -10.18739 -10.18665 -10.18578
 Alpha  occ. eigenvalues --  -10.18385 -10.18354 -10.18295 -10.18187 -10.16749
 Alpha  occ. eigenvalues --  -10.16290 -10.16278 -10.16210 -10.16078 -10.15604
 Alpha  occ. eigenvalues --  -10.15564 -10.15530 -10.15388 -10.15060 -10.14534
 Alpha  occ. eigenvalues --  -10.14454 -10.14431 -10.14361 -10.14309 -10.13925
 Alpha  occ. eigenvalues --   -7.94204  -7.94172  -7.94106  -7.94018  -7.93624
 Alpha  occ. eigenvalues --   -5.95646  -5.95614  -5.95548  -5.95460  -5.95105
 Alpha  occ. eigenvalues --   -5.95073  -5.95056  -5.95007  -5.94918  -5.94678
 Alpha  occ. eigenvalues --   -5.94646  -5.94581  -5.94514  -5.94495  -5.94118
 Alpha  occ. eigenvalues --   -1.22897  -1.22869  -1.22839  -1.22701  -1.22435
 Alpha  occ. eigenvalues --   -1.15789  -1.15747  -1.15706  -1.15505  -1.15265
 Alpha  occ. eigenvalues --   -1.06609  -1.06367  -1.06103  -1.05889  -1.05131
 Alpha  occ. eigenvalues --   -1.04771  -1.04741  -1.04700  -1.04462  -1.04314
 Alpha  occ. eigenvalues --   -0.99415  -0.98739  -0.97835  -0.96852  -0.95686
 Alpha  occ. eigenvalues --   -0.92687  -0.91780  -0.91102  -0.90977  -0.90639
 Alpha  occ. eigenvalues --   -0.90356  -0.90187  -0.89594  -0.88860  -0.88416
 Alpha  occ. eigenvalues --   -0.85574  -0.85324  -0.84946  -0.84365  -0.83376
 Alpha  occ. eigenvalues --   -0.82245  -0.81423  -0.81248  -0.80937  -0.80816
 Alpha  occ. eigenvalues --   -0.80594  -0.80421  -0.79193  -0.78044  -0.77289
 Alpha  occ. eigenvalues --   -0.72451  -0.72283  -0.71866  -0.71591  -0.71508
 Alpha  occ. eigenvalues --   -0.70983  -0.70685  -0.70245  -0.70037  -0.69904
 Alpha  occ. eigenvalues --   -0.69078  -0.68919  -0.68572  -0.68339  -0.68094
 Alpha  occ. eigenvalues --   -0.65899  -0.65737  -0.65734  -0.65512  -0.64832
 Alpha  occ. eigenvalues --   -0.63311  -0.62476  -0.62121  -0.61904  -0.61773
 Alpha  occ. eigenvalues --   -0.61622  -0.61523  -0.61473  -0.61404  -0.61258
 Alpha  occ. eigenvalues --   -0.60377  -0.60135  -0.59651  -0.59024  -0.58723
 Alpha  occ. eigenvalues --   -0.58615  -0.58515  -0.58379  -0.58247  -0.57964
 Alpha  occ. eigenvalues --   -0.57564  -0.57059  -0.56784  -0.56572  -0.56546
 Alpha  occ. eigenvalues --   -0.56475  -0.55284  -0.55100  -0.54969  -0.54770
 Alpha  occ. eigenvalues --   -0.54669  -0.54060  -0.53694  -0.53393  -0.53306
 Alpha  occ. eigenvalues --   -0.53081  -0.52956  -0.52749  -0.52725  -0.52601
 Alpha  occ. eigenvalues --   -0.52282  -0.51965  -0.51817  -0.51738  -0.51623
 Alpha  occ. eigenvalues --   -0.50812  -0.47469  -0.47403  -0.47235  -0.47087
 Alpha  occ. eigenvalues --   -0.47026  -0.46923  -0.46646  -0.46464  -0.46397
 Alpha  occ. eigenvalues --   -0.46267  -0.46260  -0.46177  -0.45990  -0.45764
 Alpha  occ. eigenvalues --   -0.45280  -0.43904  -0.43748  -0.43715  -0.43474
 Alpha  occ. eigenvalues --   -0.43454  -0.43180  -0.42806  -0.42612  -0.42420
 Alpha  occ. eigenvalues --   -0.42241  -0.42038  -0.41958  -0.41835  -0.40530
 Alpha  occ. eigenvalues --   -0.39326  -0.37095  -0.36812  -0.36639  -0.36540
 Alpha  occ. eigenvalues --   -0.36360  -0.35780  -0.35146  -0.34752  -0.34591
 Alpha  occ. eigenvalues --   -0.34416  -0.32630  -0.31868  -0.30686  -0.29380
 Alpha  occ. eigenvalues --   -0.28463
 Alpha virt. eigenvalues --   -0.01156   0.00035   0.01655   0.03461   0.04633
 Alpha virt. eigenvalues --    0.04644   0.04733   0.04877   0.05220   0.05249
 Alpha virt. eigenvalues --    0.07797   0.09425   0.10980   0.12328   0.13136

  Beta  occ. eigenvalues --  -88.33448 -88.33416 -88.33351 -88.33265 -88.32857
  Beta  occ. eigenvalues --  -19.02832 -19.02819 -19.02773 -19.02643 -19.02393
  Beta  occ. eigenvalues --  -14.23623 -14.23564 -14.23546 -14.23343 -14.23173
  Beta  occ. eigenvalues --  -14.23173 -14.23145 -14.23076 -14.22869 -14.22741
  Beta  occ. eigenvalues --  -10.21743 -10.21721 -10.21673 -10.21471 -10.21440
  Beta  occ. eigenvalues --  -10.20725 -10.20677 -10.20672 -10.20499 -10.20172
  Beta  occ. eigenvalues --  -10.19196 -10.19122 -10.19103 -10.19027 -10.19009
  Beta  occ. eigenvalues --  -10.19007 -10.18989 -10.18953 -10.18939 -10.18896
  Beta  occ. eigenvalues --  -10.18866 -10.18742 -10.18739 -10.18665 -10.18578
  Beta  occ. eigenvalues --  -10.18385 -10.18354 -10.18295 -10.18187 -10.16749
  Beta  occ. eigenvalues --  -10.16290 -10.16278 -10.16210 -10.16078 -10.15604
  Beta  occ. eigenvalues --  -10.15564 -10.15530 -10.15388 -10.15060 -10.14534
  Beta  occ. eigenvalues --  -10.14454 -10.14431 -10.14361 -10.14309 -10.13925
  Beta  occ. eigenvalues --   -7.94204  -7.94172  -7.94106  -7.94018  -7.93624
  Beta  occ. eigenvalues --   -5.95646  -5.95614  -5.95548  -5.95460  -5.95105
  Beta  occ. eigenvalues --   -5.95073  -5.95056  -5.95007  -5.94918  -5.94678
  Beta  occ. eigenvalues --   -5.94646  -5.94581  -5.94514  -5.94495  -5.94118
  Beta  occ. eigenvalues --   -1.22897  -1.22869  -1.22839  -1.22701  -1.22435
  Beta  occ. eigenvalues --   -1.15789  -1.15747  -1.15706  -1.15505  -1.15265
  Beta  occ. eigenvalues --   -1.06609  -1.06367  -1.06103  -1.05889  -1.05131
  Beta  occ. eigenvalues --   -1.04771  -1.04741  -1.04700  -1.04462  -1.04314
  Beta  occ. eigenvalues --   -0.99415  -0.98739  -0.97835  -0.96852  -0.95686
  Beta  occ. eigenvalues --   -0.92687  -0.91780  -0.91102  -0.90977  -0.90639
  Beta  occ. eigenvalues --   -0.90356  -0.90187  -0.89594  -0.88860  -0.88416
  Beta  occ. eigenvalues --   -0.85574  -0.85324  -0.84946  -0.84365  -0.83376
  Beta  occ. eigenvalues --   -0.82245  -0.81423  -0.81248  -0.80937  -0.80816
  Beta  occ. eigenvalues --   -0.80594  -0.80421  -0.79193  -0.78044  -0.77289
  Beta  occ. eigenvalues --   -0.72451  -0.72283  -0.71866  -0.71591  -0.71508
  Beta  occ. eigenvalues --   -0.70983  -0.70685  -0.70245  -0.70037  -0.69904
  Beta  occ. eigenvalues --   -0.69078  -0.68919  -0.68572  -0.68339  -0.68094
  Beta  occ. eigenvalues --   -0.65899  -0.65737  -0.65734  -0.65512  -0.64832
  Beta  occ. eigenvalues --   -0.63311  -0.62476  -0.62121  -0.61904  -0.61773
  Beta  occ. eigenvalues --   -0.61622  -0.61523  -0.61473  -0.61404  -0.61258
  Beta  occ. eigenvalues --   -0.60377  -0.60135  -0.59651  -0.59024  -0.58723
  Beta  occ. eigenvalues --   -0.58615  -0.58515  -0.58379  -0.58247  -0.57964
  Beta  occ. eigenvalues --   -0.57564  -0.57059  -0.56784  -0.56572  -0.56546
  Beta  occ. eigenvalues --   -0.56475  -0.55284  -0.55100  -0.54969  -0.54770
  Beta  occ. eigenvalues --   -0.54669  -0.54060  -0.53694  -0.53393  -0.53306
  Beta  occ. eigenvalues --   -0.53081  -0.52956  -0.52749  -0.52725  -0.52601
  Beta  occ. eigenvalues --   -0.52282  -0.51965  -0.51817  -0.51738  -0.51623
  Beta  occ. eigenvalues --   -0.50812  -0.47469  -0.47403  -0.47235  -0.47087
  Beta  occ. eigenvalues --   -0.47026  -0.46923  -0.46646  -0.46464  -0.46397
  Beta  occ. eigenvalues --   -0.46267  -0.46260  -0.46177  -0.45990  -0.45764
  Beta  occ. eigenvalues --   -0.45280  -0.43904  -0.43748  -0.43715  -0.43474
  Beta  occ. eigenvalues --   -0.43454  -0.43180  -0.42806  -0.42612  -0.42420
  Beta  occ. eigenvalues --   -0.42241  -0.42038  -0.41958  -0.41835  -0.40530
  Beta  occ. eigenvalues --   -0.39326  -0.37095  -0.36812  -0.36639  -0.36540
  Beta  occ. eigenvalues --   -0.36360  -0.35780  -0.35146  -0.34752  -0.34591
  Beta  occ. eigenvalues --   -0.34416  -0.32630  -0.31868  -0.30686  -0.29380
  Beta  occ. eigenvalues --   -0.28463
  Beta virt. eigenvalues --   -0.01156   0.00035   0.01655   0.03461   0.04633
  Beta virt. eigenvalues --    0.04644   0.04733   0.04877   0.05220   0.05249
  Beta virt. eigenvalues --    0.07797   0.09425   0.10980   0.12328   0.13136

 Mulliken charges and spin densities:
               1          2
     1  C   -0.112907  -0.000000
     2  C    0.110845   0.000000
     3  N   -0.193180  -0.000000
     4  C    0.222521  -0.000000
     5  N   -0.229037   0.000000
     6  C    0.118946  -0.000000
     7  C   -0.239152   0.000000
     8  C    0.169687  -0.000000
     9  O   -0.220847   0.000000
    10  C    0.035444  -0.000000
    11  C   -0.023935   0.000000
    12  C   -0.164109  -0.000000
    13  S    0.216891   0.000000
    14  C   -0.109764   0.000000
    15  C    0.139404  -0.000000
    16  N   -0.223527   0.000000
    17  C    0.224909  -0.000000
    18  N   -0.186673  -0.000000
    19  C    0.132348  -0.000000
    20  C   -0.240720   0.000000
    21  C    0.170394   0.000000
    22  O   -0.220069   0.000000
    23  C    0.035018   0.000000
    24  C   -0.022657   0.000000
    25  C   -0.163564  -0.000000
    26  S    0.217069   0.000000
    27  C   -0.110419   0.000000
    28  C    0.132519  -0.000000
    29  N   -0.186776   0.000000
    30  C    0.225325   0.000000
    31  N   -0.223276  -0.000000
    32  C    0.139954   0.000000
    33  C   -0.240910  -0.000000
    34  C    0.170344  -0.000000
    35  O   -0.220145  -0.000000
    36  C    0.035124  -0.000000
    37  C   -0.022359   0.000000
    38  C   -0.163376  -0.000000
    39  S    0.217430  -0.000000
    40  C   -0.110942   0.000000
    41  C    0.142967   0.000000
    42  N   -0.222829   0.000000
    43  C    0.225379  -0.000000
    44  N   -0.187332   0.000000
    45  C    0.129510   0.000000
    46  C   -0.241384  -0.000000
    47  C    0.169866   0.000000
    48  O   -0.221187  -0.000000
    49  C    0.035258   0.000000
    50  C   -0.023035  -0.000000
    51  C   -0.162636   0.000000
    52  S    0.219399  -0.000000
    53  C   -0.111224  -0.000000
    54  C    0.131227   0.000000
    55  N   -0.186811   0.000000
    56  C    0.230942  -0.000000
    57  N   -0.222142   0.000000
    58  C    0.137836   0.000000
    59  C   -0.247173   0.000000
    60  C    0.153533  -0.000000
    61  O   -0.220672   0.000000
    62  C    0.034146   0.000000
    63  C   -0.012175   0.000000
    64  C   -0.134282  -0.000000
    65  S    0.208104   0.000000
    66  H    0.020645   0.000000
    67  H    0.028673   0.000000
    68  H    0.032236  -0.000000
    69  H    0.051960   0.000000
    70  H    0.050147   0.000000
    71  H    0.067463  -0.000000
    72  H    0.013244   0.000000
    73  H    0.026114   0.000000
    74  H    0.033147   0.000000
    75  H    0.050978   0.000000
    76  H    0.068880   0.000000
    77  H    0.052426  -0.000000
    78  H    0.014149   0.000000
    79  H    0.032797  -0.000000
    80  H    0.026736  -0.000000
    81  H    0.068643  -0.000000
    82  H    0.052482  -0.000000
    83  H    0.050793   0.000000
    84  H    0.014143  -0.000000
    85  H    0.035902  -0.000000
    86  H    0.023182  -0.000000
    87  H    0.067542   0.000000
    88  H    0.051212  -0.000000
    89  H    0.052538  -0.000000
    90  H    0.013898   0.000000
    91  H    0.033034   0.000000
    92  H    0.025597  -0.000000
    93  H    0.067307  -0.000000
    94  H    0.050732   0.000000
    95  H    0.050303  -0.000000
    96  H    0.016754   0.000000
    97  H    0.045231   0.000000
 Sum of Mulliken charges =  -0.00000   0.00000

 Dipole moment (field-independent basis, Debye):
    X=             -0.0572    Y=              1.3824    Z=              1.8785  Tot=              2.3330
 Quadrupole moment (field-independent basis, Debye-Ang):
   XX=           -287.6690   YY=           -332.7061   ZZ=           -396.7867
   XY=             -9.9685   XZ=             10.0264   YZ=             -7.6377

 Normal termination of Gaussian 16 at Sat Jul 25 00:14:34 2020.
