 Gaussian 16, Revision A.03,
 Gaussian 16:  EM64L-G16RevA.03 25-Dec-2016

 ---------------------------------------------------------------
 #P uLC-wPBE/cc-pVDZ iop(3/107=0195900000, 3/108=0195900000) opt
 ---------------------------------------------------------------

 --------------
 H62 C65 S5 O15
 --------------
 Symbolic Z-matrix:
 Charge =  0 Multiplicity = 1

 SCF Done:  E(ULC-wPBE) =  -5629.39013099     A.U. after   17 cycles
 SCF Done:  E(ULC-wPBE) =  -5629.49072995     A.U. after   14 cycles
 SCF Done:  E(ULC-wPBE) =  -5629.59671992     A.U. after   14 cycles
 SCF Done:  E(ULC-wPBE) =  -5629.62890716     A.U. after   15 cycles
 SCF Done:  E(ULC-wPBE) =  -5629.63904426     A.U. after   13 cycles
 SCF Done:  E(ULC-wPBE) =  -5629.64936386     A.U. after   15 cycles
 SCF Done:  E(ULC-wPBE) =  -5629.66005229     A.U. after   17 cycles
 SCF Done:  E(ULC-wPBE) =  -5629.66684294     A.U. after   13 cycles
 SCF Done:  E(ULC-wPBE) =  -5629.67522530     A.U. after   16 cycles
 SCF Done:  E(ULC-wPBE) =  -5629.67837341     A.U. after   14 cycles
 SCF Done:  E(ULC-wPBE) =  -5629.68652565     A.U. after   10 cycles
 SCF Done:  E(ULC-wPBE) =  -5629.68653475     A.U. after   11 cycles
 SCF Done:  E(ULC-wPBE) =  -5629.68653878     A.U. after   10 cycles
 SCF Done:  E(ULC-wPBE) =  -5629.68653995     A.U. after    9 cycles
 SCF Done:  E(ULC-wPBE) =  -5629.68654082     A.U. after    7 cycles
 SCF Done:  E(ULC-wPBE) =  -5629.68654152     A.U. after    8 cycles
 SCF Done:  E(ULC-wPBE) =  -5629.68654173     A.U. after    7 cycles
 SCF Done:  E(ULC-wPBE) =  -5629.68654174     A.U. after    6 cycles
 SCF Done:  E(ULC-wPBE) =  -5629.68654176     A.U. after    7 cycles
 SCF Done:  E(ULC-wPBE) =  -5629.68654179     A.U. after    6 cycles
 Optimization completed.
    -- Stationary point found.

                         Standard orientation:
 ---------------------------------------------------------------------
 Center     Atomic      Atomic             Coordinates (Angstroms)
 Number     Number       Type             X           Y           Z
 ---------------------------------------------------------------------
      1          6           0       18.637895   -2.012708    1.880538
      2          6           0       18.436495   -1.770583    0.520286
      3          6           0       17.272657   -1.097909    0.108596
      4          8           0       16.968625   -0.841134   -1.194730
      5          6           0       17.911457   -1.226862   -2.180866
      6          6           0       16.319495   -0.649665    1.054269
      7          6           0       16.553783   -0.920415    2.422682
      8          8           0       15.588719   -0.470895    3.277823
      9          6           0       15.771864   -0.706744    4.664738
     10          6           0       17.709821   -1.601619    2.839794
     11          6           0       15.117770    0.083608    0.611168
     12          6           0       15.065053    1.262630   -0.119054
     13          8           0       16.221084    1.906506   -0.452663
     14          6           0       16.082766    3.086083   -1.227011
     15          6           0       13.735101    1.686856   -0.425559
     16          6           0       12.770365    0.831959    0.075278
     17         16           0       13.504795   -0.498659    0.916402
     18          6           0       11.305009    0.952135   -0.034235
     19          6           0       10.467499    0.449064    0.975397
     20          6           0        9.075881    0.577833    0.860390
     21          8           0        8.198331    0.120331    1.800534
     22          6           0        8.730584   -0.535016    2.941481
     23          6           0        8.485488    1.219412   -0.253029
     24          6           0        9.346835    1.703777   -1.266488
     25          8           0        8.725021    2.265630   -2.341260
     26          6           0        9.537937    2.807672   -3.368193
     27          6           0       10.739822    1.576180   -1.159287
     28          6           0        7.024821    1.383433   -0.367060
     29          6           0        6.313133    2.564453   -0.529335
     30          8           0        6.972323    3.759280   -0.533685
     31          6           0        6.176580    4.915674   -0.732526
     32          6           0        4.902748    2.370399   -0.653019
     33          6           0        4.535718    1.038976   -0.580221
     34         16           0        5.931231    0.026995   -0.367769
     35          6           0        3.180065    0.464489   -0.656766
     36          6           0        2.864326   -0.720218    0.028608
     37          6           0        1.569615   -1.255299   -0.049408
     38          8           0        1.181799   -2.379965    0.614257
     39          6           0        2.167206   -3.087601    1.349202
     40          6           0        0.562506   -0.626411   -0.819249
     41          6           0        0.898859    0.573237   -1.488599
     42          8           0       -0.114322    1.138114   -2.208748
     43          6           0        0.157137    2.342798   -2.906828
     44          6           0        2.191116    1.112746   -1.416717
     45          6           0       -0.785711   -1.215559   -0.917648
     46          6           0       -1.124567   -2.488452   -1.356312
     47          8           0       -0.151568   -3.334098   -1.803084
     48          6           0       -0.576101   -4.625642   -2.205119
     49          6           0       -2.525550   -2.763033   -1.288986
     50          6           0       -3.258354   -1.698026   -0.798223
     51         16           0       -2.221180   -0.352241   -0.436722
     52          6           0       -4.716605   -1.615281   -0.595894
     53          6           0       -5.252264   -0.811289    0.424061
     54          6           0       -6.640594   -0.750077    0.612205
     55          8           0       -7.235115    0.002304    1.583545
     56          6           0       -6.397025    0.771811    2.432415
     57          6           0       -7.526808   -1.494970   -0.200062
     58          6           0       -6.966873   -2.284653   -1.232839
     59          8           0       -7.866666   -2.939319   -2.019943
     60          6           0       -7.362482   -3.780455   -3.043420
     61          6           0       -5.579104   -2.348864   -1.428037
     62          6           0       -8.985520   -1.458794    0.010616
     63          6           0       -9.835910   -2.530561    0.246673
     64          8           0       -9.323684   -3.789433    0.370302
     65          6           0      -10.261319   -4.831809    0.580005
     66          6           0      -11.210330   -2.156442    0.361323
     67          6           0      -11.409829   -0.795512    0.217868
     68         16           0       -9.903195    0.020427   -0.066755
     69          6           0      -12.681361   -0.052339    0.286605
     70          6           0      -12.713171    1.271753    0.755059
     71          6           0      -13.932106    1.962043    0.822289
     72          8           0      -14.044930    3.246500    1.269969
     73          6           0      -12.857922    3.919612    1.660524
     74          6           0      -15.147021    1.349728    0.437139
     75          6           0      -15.089740    0.021556   -0.047968
     76          8           0      -16.280358   -0.503149   -0.454698
     77          6           0      -16.291834   -1.846300   -0.906915
     78          6           0      -13.873820   -0.674669   -0.120047
     79          6           0      -16.436207    2.060086    0.532418
     80          6           0      -17.568632    1.668347    1.232888
     81          8           0      -17.543932    0.527934    1.983082
     82          6           0      -18.749763    0.185999    2.645038
     83          6           0      -18.673713    2.568222    1.083558
     84          6           0      -18.363442    3.633904    0.270755
     85         16           0      -16.743924    3.556612   -0.307886
     86          1           0       19.544873   -2.541260    2.203209
     87          1           0       19.178021   -2.112225   -0.209000
     88          1           0       18.074312   -2.325448   -2.192913
     89          1           0       18.888341   -0.718385   -2.038762
     90          1           0       17.479587   -0.917361   -3.147937
     91          1           0       14.891276   -0.267034    5.163320
     92          1           0       16.690385   -0.215327    5.049195
     93          1           0       15.818197   -1.791606    4.897462
     94          1           0       17.893535   -1.806051    3.899422
     95          1           0       17.106850    3.452364   -1.415074
     96          1           0       15.585351    2.886044   -2.200286
     97          1           0       15.513267    3.872906   -0.687267
     98          1           0       13.482713    2.609959   -0.956274
     99          1           0       10.916634   -0.010693    1.861876
    100          1           0        9.381172    0.138697    3.537763
    101          1           0        7.859761   -0.829731    3.551408
    102          1           0        9.307459   -1.442455    2.665061
    103          1           0       10.164919    2.031260   -3.855635
    104          1           0       10.196193    3.617516   -2.988648
    105          1           0        8.841182    3.226840   -4.114051
    106          1           0       11.397038    1.919650   -1.963997
    107          1           0        5.645261    4.889597   -1.708104
    108          1           0        6.872093    5.772704   -0.724570
    109          1           0        5.430388    5.051129    0.079615
    110          1           0        4.169459    3.177207   -0.746963
    111          1           0        3.630141   -1.196672    0.649511
    112          1           0        1.653127   -3.968373    1.770355
    113          1           0        3.000924   -3.426710    0.699334
    114          1           0        2.582027   -2.479109    2.180494
    115          1           0       -0.789387    2.624440   -3.398664
    116          1           0        0.942103    2.203887   -3.679789
    117          1           0        0.467367    3.157777   -2.219201
    118          1           0        2.454586    2.013545   -1.979371
    119          1           0        0.332944   -5.160589   -2.530201
    120          1           0       -1.046226   -5.185945   -1.368695
    121          1           0       -1.290784   -4.581703   -3.054953
    122          1           0       -2.986469   -3.718310   -1.558171
    123          1           0       -4.572226   -0.265476    1.086350
    124          1           0       -5.707119    0.131497    3.021112
    125          1           0       -5.801308    1.514672    1.861563
    126          1           0       -7.075121    1.302453    3.122179
    127          1           0       -6.779252   -3.212495   -3.798921
    128          1           0       -6.726857   -4.593388   -2.633162
    129          1           0       -8.247050   -4.223732   -3.531846
    130          1           0       -5.156011   -2.932112   -2.251607
    131          1           0      -10.988239   -4.909101   -0.256888
    132          1           0       -9.675687   -5.765795    0.635156
    133          1           0      -10.820972   -4.702113    1.531189
    134          1           0      -12.027422   -2.848503    0.586908
    135          1           0      -11.783947    1.740088    1.095904
    136          1           0      -13.173482    4.932559    1.963052
    137          1           0      -12.364378    3.419837    2.520428
    138          1           0      -12.132864    3.997316    0.823370
    139          1           0      -15.667451   -1.984999   -1.814978
    140          1           0      -15.945439   -2.549306   -0.120098
    141          1           0      -17.342960   -2.071184   -1.156169
    142          1           0      -13.832205   -1.688209   -0.530535
    143          1           0      -19.057075    0.963544    3.377160
    144          1           0      -18.547283   -0.753973    3.187171
    145          1           0      -19.582622    0.018030    1.928774
    146          1           0      -19.652504    2.442061    1.556406
    147          1           0      -19.007804    4.472604   -0.007636
 ---------------------------------------------------------------------

 Alpha virt. eigenvalues --    0.12052   0.12110   0.12281   0.12422   0.12465
 Alpha virt. eigenvalues --    0.13297   0.13315   0.13516   0.13710   0.13785
 Alpha virt. eigenvalues --    0.14005   0.14157   0.14227   0.14313   0.14371

  Beta  occ. eigenvalues --  -88.19273 -88.19142 -88.19073 -88.19026 -88.18972
  Beta  occ. eigenvalues --  -18.90343 -18.90192 -18.90129 -18.90122 -18.90045
  Beta  occ. eigenvalues --  -18.90034 -18.89918 -18.89904 -18.89839 -18.89800
  Beta  occ. eigenvalues --  -18.89651 -18.89554 -18.89445 -18.89444 -18.89286
  Beta  occ. eigenvalues --  -10.06367 -10.06306 -10.06256 -10.06226 -10.06171
  Beta  occ. eigenvalues --  -10.06116 -10.06090 -10.06075 -10.05992 -10.05973
  Beta  occ. eigenvalues --  -10.05962 -10.05837 -10.05763 -10.05718 -10.05713
  Beta  occ. eigenvalues --  -10.05684 -10.05636 -10.05592 -10.05561 -10.05546
  Beta  occ. eigenvalues --  -10.05499 -10.05473 -10.05471 -10.05437 -10.05371
  Beta  occ. eigenvalues --  -10.05263 -10.05161 -10.05072 -10.05043 -10.04857
  Beta  occ. eigenvalues --  -10.03111 -10.02996 -10.02922 -10.02875 -10.02305
  Beta  occ. eigenvalues --  -10.02192 -10.02146 -10.02116 -10.02057 -10.01950
  Beta  occ. eigenvalues --  -10.01853 -10.01775 -10.01735 -10.01532 -10.01038
  Beta  occ. eigenvalues --  -10.01024 -10.00845 -10.00729 -10.00719 -10.00582
  Beta  occ. eigenvalues --  -10.00177 -10.00066  -9.99996  -9.99989  -9.99943
  Beta  occ. eigenvalues --   -9.99884  -9.99847  -9.99677  -9.99658  -9.99602
  Beta  occ. eigenvalues --   -9.99538  -9.99511  -9.99502  -9.99438  -9.99410
  Beta  occ. eigenvalues --   -7.79611  -7.79478  -7.79408  -7.79361  -7.79313
  Beta  occ. eigenvalues --   -5.81631  -5.81499  -5.81428  -5.81382  -5.81328
  Beta  occ. eigenvalues --   -5.81173  -5.81039  -5.80971  -5.80923  -5.80865
  Beta  occ. eigenvalues --   -5.80755  -5.80622  -5.80552  -5.80506  -5.80474
  Beta  occ. eigenvalues --   -1.08835  -1.08714  -1.08627  -1.08611  -1.08575
  Beta  occ. eigenvalues --   -1.08513  -1.08459  -1.08373  -1.08372  -1.08257
  Beta  occ. eigenvalues --   -1.07967  -1.07870  -1.07759  -1.07756  -1.07597
  Beta  occ. eigenvalues --   -0.91344  -0.91201  -0.91072  -0.90910  -0.90286
  Beta  occ. eigenvalues --   -0.88703  -0.88397  -0.88001  -0.87622  -0.87319
  Beta  occ. eigenvalues --   -0.83243  -0.82650  -0.81832  -0.80965  -0.80319
  Beta  occ. eigenvalues --   -0.79171  -0.79101  -0.78992  -0.78954  -0.78854
  Beta  occ. eigenvalues --   -0.78091  -0.77839  -0.77557  -0.77491  -0.77292
  Beta  occ. eigenvalues --   -0.76690  -0.76384  -0.75926  -0.75596  -0.75339
  Beta  occ. eigenvalues --   -0.74271  -0.74212  -0.74133  -0.74052  -0.73971
  Beta  occ. eigenvalues --   -0.73145  -0.73008  -0.72962  -0.72907  -0.72861
  Beta  occ. eigenvalues --   -0.72189  -0.71888  -0.71255  -0.70334  -0.69165
  Beta  occ. eigenvalues --   -0.67824  -0.66541  -0.65396  -0.64498  -0.64023
  Beta  occ. eigenvalues --   -0.63022  -0.62938  -0.62855  -0.62815  -0.62787
  Beta  occ. eigenvalues --   -0.60618  -0.60505  -0.60368  -0.60328  -0.60185
  Beta  occ. eigenvalues --   -0.59880  -0.59703  -0.59387  -0.59311  -0.58867
  Beta  occ. eigenvalues --   -0.58742  -0.58281  -0.57851  -0.57542  -0.57040
  Beta  occ. eigenvalues --   -0.56754  -0.55800  -0.55469  -0.55201  -0.55102
  Beta  occ. eigenvalues --   -0.54820  -0.54751  -0.54631  -0.54535  -0.54480
  Beta  occ. eigenvalues --   -0.53593  -0.53474  -0.53465  -0.53442  -0.53350
  Beta  occ. eigenvalues --   -0.51838  -0.51767  -0.51647  -0.51612  -0.51538
  Beta  occ. eigenvalues --   -0.51506  -0.51370  -0.51293  -0.51270  -0.51244
  Beta  occ. eigenvalues --   -0.51154  -0.51131  -0.51008  -0.50992  -0.50906
  Beta  occ. eigenvalues --   -0.50878  -0.50788  -0.50682  -0.50645  -0.50509
  Beta  occ. eigenvalues --   -0.49630  -0.49559  -0.49408  -0.49247  -0.49093
  Beta  occ. eigenvalues --   -0.48959  -0.48463  -0.48326  -0.48157  -0.48008
  Beta  occ. eigenvalues --   -0.47627  -0.47308  -0.47171  -0.46837  -0.46448
  Beta  occ. eigenvalues --   -0.45936  -0.45533  -0.45431  -0.45363  -0.45319
  Beta  occ. eigenvalues --   -0.45243  -0.45205  -0.45171  -0.45127  -0.44984
  Beta  occ. eigenvalues --   -0.44906  -0.44259  -0.44227  -0.44073  -0.43874
  Beta  occ. eigenvalues --   -0.43553  -0.43411  -0.43332  -0.43286  -0.43121
  Beta  occ. eigenvalues --   -0.43080  -0.42969  -0.42674  -0.42554  -0.42384
  Beta  occ. eigenvalues --   -0.42161  -0.41715  -0.41573  -0.41513  -0.41323
  Beta  occ. eigenvalues --   -0.41153  -0.39527  -0.39415  -0.39292  -0.39269
  Beta  occ. eigenvalues --   -0.39185  -0.38903  -0.38776  -0.38698  -0.38664
  Beta  occ. eigenvalues --   -0.38608  -0.38525  -0.38335  -0.38283  -0.38200
  Beta  occ. eigenvalues --   -0.38072  -0.38029  -0.37950  -0.37885  -0.37740
  Beta  occ. eigenvalues --   -0.37530  -0.37407  -0.37348  -0.37174  -0.37093
  Beta  occ. eigenvalues --   -0.36994  -0.36889  -0.36878  -0.36740  -0.36423
  Beta  occ. eigenvalues --   -0.36069  -0.35885  -0.35072  -0.34911  -0.34741
  Beta  occ. eigenvalues --   -0.34631  -0.30820  -0.30578  -0.30158  -0.29652
  Beta  occ. eigenvalues --   -0.29106  -0.28038  -0.27843  -0.27733  -0.27685
  Beta  occ. eigenvalues --   -0.27552  -0.27313  -0.27231  -0.27105  -0.27060
  Beta  occ. eigenvalues --   -0.26989  -0.25665  -0.25116  -0.24259  -0.23290
  Beta  occ. eigenvalues --   -0.22689
  Beta virt. eigenvalues --    0.00535   0.01174   0.02376   0.03395   0.05270
  Beta virt. eigenvalues --    0.05927   0.07323   0.07506   0.07614   0.07692
  Beta virt. eigenvalues --    0.07771   0.07942   0.08639   0.09150   0.09629

 Mulliken charges and spin densities:
               1          2
     1  C    0.028669   0.000000
     2  C   -0.038083   0.000000
     3  C    0.116030   0.000000
     4  O   -0.225781  -0.000000
     5  C    0.064304  -0.000000
     6  C   -0.023980  -0.000000
     7  C    0.110518  -0.000000
     8  O   -0.230287   0.000000
     9  C    0.063937   0.000000
    10  C   -0.037413   0.000000
    11  C   -0.176000   0.000000
    12  C    0.183774  -0.000000
    13  O   -0.234158   0.000000
    14  C    0.062286   0.000000
    15  C   -0.013264   0.000000
    16  C   -0.155400  -0.000000
    17  S    0.166327  -0.000000
    18  C    0.070736   0.000000
    19  C   -0.054599  -0.000000
    20  C    0.116927   0.000000
    21  O   -0.232798  -0.000000
    22  C    0.065885  -0.000000
    23  C   -0.010194  -0.000000
    24  C    0.125011   0.000000
    25  O   -0.227762  -0.000000
    26  C    0.068171   0.000000
    27  C   -0.056120   0.000000
    28  C   -0.179215   0.000000
    29  C    0.181518  -0.000000
    30  O   -0.234006   0.000000
    31  C    0.062431  -0.000000
    32  C   -0.013172   0.000000
    33  C   -0.155167  -0.000000
    34  S    0.167586  -0.000000
    35  C    0.070717   0.000000
    36  C   -0.055134  -0.000000
    37  C    0.121398  -0.000000
    38  O   -0.228163  -0.000000
    39  C    0.066019   0.000000
    40  C   -0.011197  -0.000000
    41  C    0.120223   0.000000
    42  O   -0.232384  -0.000000
    43  C    0.067574   0.000000
    44  C   -0.055227  -0.000000
    45  C   -0.179520   0.000000
    46  C    0.183766   0.000000
    47  O   -0.233087   0.000000
    48  C    0.062470   0.000000
    49  C   -0.012925  -0.000000
    50  C   -0.154889   0.000000
    51  S    0.162643  -0.000000
    52  C    0.069571  -0.000000
    53  C   -0.053580   0.000000
    54  C    0.116861   0.000000
    55  O   -0.233044  -0.000000
    56  C    0.065755  -0.000000
    57  C   -0.010108  -0.000000
    58  C    0.124674   0.000000
    59  O   -0.227981  -0.000000
    60  C    0.068239   0.000000
    61  C   -0.056701  -0.000000
    62  C   -0.178992  -0.000000
    63  C    0.181245   0.000000
    64  O   -0.233945  -0.000000
    65  C    0.062528  -0.000000
    66  C   -0.012577   0.000000
    67  C   -0.155054   0.000000
    68  S    0.167040   0.000000
    69  C    0.069447  -0.000000
    70  C   -0.054990   0.000000
    71  C    0.117691  -0.000000
    72  O   -0.232432   0.000000
    73  C    0.065885  -0.000000
    74  C   -0.002883   0.000000
    75  C    0.125745  -0.000000
    76  O   -0.227552  -0.000000
    77  C    0.068381  -0.000000
    78  C   -0.056580   0.000000
    79  C   -0.192143   0.000000
    80  C    0.168579   0.000000
    81  O   -0.232833  -0.000000
    82  C    0.060220   0.000000
    83  C    0.009198  -0.000000
    84  C   -0.127834  -0.000000
    85  S    0.167414  -0.000000
    86  H   -0.020859  -0.000000
    87  H   -0.023649  -0.000000
    88  H    0.041356   0.000000
    89  H    0.041188  -0.000000
    90  H    0.046121   0.000000
    91  H    0.048323  -0.000000
    92  H    0.042810   0.000000
    93  H    0.041624   0.000000
    94  H   -0.024015  -0.000000
    95  H    0.043683  -0.000000
    96  H    0.035248  -0.000000
    97  H    0.039743  -0.000000
    98  H   -0.019305  -0.000000
    99  H   -0.023406  -0.000000
   100  H    0.045087   0.000000
   101  H    0.046540   0.000000
   102  H    0.044084   0.000000
   103  H    0.043609  -0.000000
   104  H    0.038335  -0.000000
   105  H    0.044980   0.000000
   106  H   -0.032813  -0.000000
   107  H    0.035196  -0.000000
   108  H    0.043386   0.000000
   109  H    0.039813  -0.000000
   110  H   -0.019724  -0.000000
   111  H   -0.023167  -0.000000
   112  H    0.044475  -0.000000
   113  H    0.043820   0.000000
   114  H    0.043212  -0.000000
   115  H    0.049478  -0.000000
   116  H    0.044549  -0.000000
   117  H    0.038584   0.000000
   118  H   -0.032927  -0.000000
   119  H    0.044414  -0.000000
   120  H    0.038489  -0.000000
   121  H    0.035773  -0.000000
   122  H   -0.019627   0.000000
   123  H   -0.022248   0.000000
   124  H    0.046200   0.000000
   125  H    0.043921   0.000000
   126  H    0.046441  -0.000000
   127  H    0.043822  -0.000000
   128  H    0.038279  -0.000000
   129  H    0.044678  -0.000000
   130  H   -0.032490   0.000000
   131  H    0.034943   0.000000
   132  H    0.043148   0.000000
   133  H    0.039668  -0.000000
   134  H   -0.019730   0.000000
   135  H   -0.023315   0.000000
   136  H    0.047200  -0.000000
   137  H    0.044598   0.000000
   138  H    0.044244  -0.000000
   139  H    0.043109   0.000000
   140  H    0.038068   0.000000
   141  H    0.044586   0.000000
   142  H   -0.033262  -0.000000
   143  H    0.037676  -0.000000
   144  H    0.043078  -0.000000
   145  H    0.036495  -0.000000
   146  H   -0.015264   0.000000
   147  H    0.013494  -0.000000
 Sum of Mulliken charges =  -0.00000  -0.00000

 Dipole moment (field-independent basis, Debye):
    X=              3.5868    Y=             -1.4745    Z=             -0.0925  Tot=              3.8791
 Quadrupole moment (field-independent basis, Debye-Ang):
   XX=           -425.3044   YY=           -456.6886   ZZ=           -480.2120
   XY=             49.2405   XZ=            -20.5847   YZ=             -6.7852

 Normal termination of Gaussian 16 at Mon Jul 27 00:25:09 2020.
