 Gaussian 16, Revision A.03,
 Gaussian 16:  EM64L-G16RevA.03 25-Dec-2016

 ---------------------------------------------------------------
 #P uLC-wPBE/cc-pVDZ iop(3/107=0394000000, 3/108=0394000000) opt
 ---------------------------------------------------------------

 ----------------
 H51 C77 S7 O7 F7
 ----------------
 Symbolic Z-matrix:
 Charge =  0 Multiplicity = 1

 SCF Done:  E(ULC-wPBE) =  -6973.85810898     A.U. after   18 cycles
 SCF Done:  E(ULC-wPBE) =  -6973.95531060     A.U. after   14 cycles
 SCF Done:  E(ULC-wPBE) =  -6974.06155458     A.U. after   14 cycles
 SCF Done:  E(ULC-wPBE) =  -6974.09641688     A.U. after   15 cycles
 SCF Done:  E(ULC-wPBE) =  -6974.10472359     A.U. after   15 cycles
 SCF Done:  E(ULC-wPBE) =  -6974.10743688     A.U. after   14 cycles
 SCF Done:  E(ULC-wPBE) =  -6974.11018594     A.U. after   14 cycles
 SCF Done:  E(ULC-wPBE) =  -6974.11329271     A.U. after   14 cycles
 SCF Done:  E(ULC-wPBE) =  -6974.11554462     A.U. after   15 cycles
 SCF Done:  E(ULC-wPBE) =  -6974.11627108     A.U. after   14 cycles
 SCF Done:  E(ULC-wPBE) =  -6974.11697463     A.U. after   10 cycles
 SCF Done:  E(ULC-wPBE) =  -6974.11697495     A.U. after    7 cycles
 SCF Done:  E(ULC-wPBE) =  -6974.11697516     A.U. after    7 cycles
 SCF Done:  E(ULC-wPBE) =  -6974.11697527     A.U. after    8 cycles
 SCF Done:  E(ULC-wPBE) =  -6974.11697534     A.U. after    6 cycles
 SCF Done:  E(ULC-wPBE) =  -6974.11697534     A.U. after    5 cycles
 SCF Done:  E(ULC-wPBE) =  -6974.11697531     A.U. after    6 cycles
 SCF Done:  E(ULC-wPBE) =  -6974.11697548     A.U. after    7 cycles
 SCF Done:  E(ULC-wPBE) =  -6974.11697541     A.U. after    5 cycles
 SCF Done:  E(ULC-wPBE) =  -6974.11697548     A.U. after    6 cycles
 Optimization completed.
    -- Stationary point found.

                         Standard orientation:
 ---------------------------------------------------------------------
 Center     Atomic      Atomic             Coordinates (Angstroms)
 Number     Number       Type             X           Y           Z
 ---------------------------------------------------------------------
      1          6           0       27.203290   -2.356034   -0.993939
      2          6           0       26.993759   -0.983055   -0.958757
      3          6           0       25.724695   -0.473256   -0.726667
      4          6           0       24.622443   -1.311988   -0.516929
      5          6           0       24.876791   -2.683177   -0.566303
      6          9           0       23.857232   -3.545310   -0.387161
      7          6           0       26.131285   -3.214289   -0.798176
      8          6           0       23.278573   -0.768643   -0.262652
      9          6           0       22.954234    0.458313    0.275296
     10          8           0       23.915787    1.323732    0.680219
     11          6           0       23.490880    2.492554    1.343507
     12          6           0       21.553148    0.699689    0.339932
     13          6           0       20.819128   -0.341402   -0.157038
     14         16           0       21.831762   -1.623129   -0.676947
     15          6           0       19.354016   -0.442041   -0.249474
     16          6           0       18.730895   -1.187296   -1.252348
     17          6           0       17.350605   -1.265090   -1.331344
     18          6           0       16.516691   -0.605290   -0.419480
     19          6           0       17.171301    0.136013    0.565685
     20          9           0       16.439861    0.804277    1.478325
     21          6           0       18.543797    0.224481    0.668495
     22          6           0       15.052391   -0.693745   -0.502123
     23          6           0       14.299613   -1.684352   -1.097562
     24          8           0       14.885897   -2.769006   -1.658799
     25          6           0       14.035678   -3.792703   -2.125089
     26          6           0       12.898361   -1.442834   -1.046821
     27          6           0       12.591948   -0.267713   -0.418150
     28         16           0       14.006348    0.539468    0.115807
     29          6           0       11.255130    0.297666   -0.177460
     30          6           0       10.982343    1.093464    0.936938
     31          6           0        9.716284    1.611805    1.151353
     32          6           0        8.654611    1.366100    0.271080
     33          6           0        8.959614    0.561653   -0.828192
     34          9           0        7.991448    0.273917   -1.718873
     35          6           0       10.213184    0.038161   -1.066493
     36          6           0        7.313102    1.921261    0.498303
     37          6           0        6.975750    3.033582    1.240796
     38          8           0        7.924780    3.788194    1.845416
     39          6           0        7.499646    4.976103    2.474692
     40          6           0        5.574765    3.275284    1.301224
     41          6           0        4.852527    2.341402    0.611600
     42         16           0        5.877529    1.186384   -0.132136
     43          6           0        3.390345    2.275681    0.458449
     44          6           0        2.617290    3.438712    0.454183
     45          6           0        1.240153    3.379763    0.325600
     46          6           0        0.559887    2.163275    0.181590
     47          6           0        1.361952    1.021294    0.187854
     48          9           0        0.781484   -0.187768    0.071848
     49          6           0        2.734596    1.053281    0.324130
     50          6           0       -0.901045    2.104407    0.035105
     51          6           0       -1.743817    3.095730   -0.422545
     52          8           0       -1.258805    4.284839   -0.855046
     53          6           0       -2.178207    5.182701   -1.435453
     54          6           0       -3.119072    2.732416   -0.392963
     55          6           0       -3.316465    1.469089    0.092049
     56         16           0       -1.830615    0.722028    0.505590
     57          6           0       -4.596400    0.762983    0.259045
     58          6           0       -4.689789   -0.626049    0.151498
     59          6           0       -5.904002   -1.273652    0.305354
     60          6           0       -7.088758   -0.575778    0.572821
     61          6           0       -6.961459    0.811097    0.667197
     62          9           0       -8.056060    1.554570    0.917434
     63          6           0       -5.763216    1.478720    0.523107
     64          6           0       -8.374775   -1.265910    0.741749
     65          6           0       -8.585331   -2.578164    1.110492
     66          8           0       -7.549090   -3.394313    1.419558
     67          6           0       -7.863595   -4.676009    1.915716
     68          6           0       -9.958522   -2.950325    1.132281
     69          6           0      -10.785273   -1.921452    0.774726
     70         16           0       -9.893992   -0.501662    0.418379
     71          6           0      -12.254238   -1.942782    0.693463
     72          6           0      -12.933904   -3.114000    0.351588
     73          6           0      -14.316325   -3.143454    0.284601
     74          6           0      -15.096128   -2.009960    0.550022
     75          6           0      -14.385396   -0.853824    0.875100
     76          9           0      -15.062870    0.280014    1.133700
     77          6           0      -13.008917   -0.800184    0.953201
     78          6           0      -16.563789   -2.044897    0.481996
     79          6           0      -17.387673   -3.143452    0.610594
     80          8           0      -16.881795   -4.375491    0.861896
     81          6           0      -17.804953   -5.412767    1.105847
     82          6           0      -18.768543   -2.842824    0.444446
     83          6           0      -18.987512   -1.519039    0.182300
     84         16           0      -17.518888   -0.636143    0.164391
     85          6           0      -20.282310   -0.854870   -0.044118
     86          6           0      -21.438792   -1.319503    0.586745
     87          6           0      -22.660214   -0.708933    0.353645
     88          6           0      -22.781938    0.391573   -0.497617
     89          6           0      -21.609766    0.850762   -1.094780
     90          9           0      -21.657670    1.925236   -1.891100
     91          6           0      -20.383599    0.246715   -0.893202
     92          6           0      -24.073378    1.052115   -0.736484
     93          6           0      -24.652621    1.360385   -1.941426
     94          8           0      -24.034616    1.043010   -3.099588
     95          6           0      -24.629614    1.503686   -4.289925
     96          6           0      -25.932380    1.982348   -1.803172
     97          6           0      -26.291348    2.120355   -0.497331
     98         16           0      -25.103710    1.516097    0.568354
     99          1           0       28.199236   -2.762395   -1.177215
    100          1           0       27.826739   -0.296597   -1.118061
    101          1           0       25.568624    0.603191   -0.700706
    102          1           0       26.242333   -4.298667   -0.818715
    103          1           0       24.400903    3.022734    1.646616
    104          1           0       22.901278    3.145576    0.679733
    105          1           0       22.898365    2.254390    2.241392
    106          1           0       21.101418    1.617259    0.710174
    107          1           0       19.336345   -1.702009   -2.000390
    108          1           0       16.891717   -1.850472   -2.124885
    109          1           0       18.962613    0.802645    1.492019
    110          1           0       13.396530   -3.444201   -2.952443
    111          1           0       13.402269   -4.190482   -1.316258
    112          1           0       14.689397   -4.591729   -2.492633
    113          1           0       12.140300   -2.122789   -1.428924
    114          1           0       11.770134    1.295578    1.664652
    115          1           0        9.530680    2.225062    2.030177
    116          1           0       10.361563   -0.553149   -1.969973
    117          1           0        6.988326    5.646907    1.765921
    118          1           0        6.833059    4.768045    3.327201
    119          1           0        8.405663    5.469927    2.843762
    120          1           0        5.111422    4.087468    1.856658
    121          1           0        3.103628    4.411562    0.535736
    122          1           0        0.661637    4.300874    0.321258
    123          1           0        3.274312    0.105628    0.337710
    124          1           0       -2.682176    4.736260   -2.307396
    125          1           0       -1.594996    6.049859   -1.765361
    126          1           0       -2.934878    5.516533   -0.707092
    127          1           0       -3.932231    3.362971   -0.745334
    128          1           0       -3.798981   -1.213248   -0.078035
    129          1           0       -5.948787   -2.356466    0.213031
    130          1           0       -5.758612    2.561743    0.645498
    131          1           0       -8.395171   -5.282815    1.164879
    132          1           0       -8.470501   -4.615538    2.833153
    133          1           0       -6.907826   -5.157854    2.150742
    134          1           0      -10.329487   -3.927819    1.431820
    135          1           0      -12.369269   -4.014626    0.107166
    136          1           0      -14.820572   -4.067785    0.011864
    137          1           0      -12.544685    0.144394    1.239301
    138          1           0      -18.460931   -5.176369    1.958849
    139          1           0      -17.211983   -6.302248    1.347181
    140          1           0      -18.422149   -5.624682    0.217829
    141          1           0      -19.570130   -3.576802    0.484865
    142          1           0      -21.378726   -2.160682    1.278170
    143          1           0      -23.558035   -1.090448    0.843712
    144          1           0      -19.514305    0.649339   -1.414729
    145          1           0      -24.726268    2.601541   -4.296269
    146          1           0      -25.621000    1.049383   -4.452416
    147          1           0      -23.963172    1.200284   -5.105259
    148          1           0      -26.559464    2.306522   -2.631084
    149          1           0      -27.206975    2.560071   -0.107990
 ---------------------------------------------------------------------

 Alpha virt. eigenvalues --    0.43450   0.44253   0.45196   0.45536   0.45661
 Alpha virt. eigenvalues --    0.46364   0.46466   0.46627   0.46890   0.47055
 Alpha virt. eigenvalues --    0.47233   0.47411   0.47534   0.47765   0.47885

  Beta  occ. eigenvalues --  -88.31786 -88.31749 -88.31667 -88.31624 -88.31605
  Beta  occ. eigenvalues --  -88.31532 -88.31329 -24.50054 -24.50032 -24.49995
  Beta  occ. eigenvalues --  -24.49985 -24.49928 -24.49473 -24.49339 -19.01946
  Beta  occ. eigenvalues --  -19.01784 -19.01779 -19.01751 -19.01630 -19.01436
  Beta  occ. eigenvalues --  -19.00899 -10.20481 -10.20454 -10.20427 -10.20419
  Beta  occ. eigenvalues --  -10.20389 -10.20303 -10.19813 -10.18577 -10.18473
  Beta  occ. eigenvalues --  -10.18448 -10.18423 -10.18330 -10.18089 -10.18002
  Beta  occ. eigenvalues --  -10.17965 -10.17814 -10.17797 -10.17784 -10.17641
  Beta  occ. eigenvalues --  -10.17553 -10.17212 -10.16020 -10.15944 -10.15900
  Beta  occ. eigenvalues --  -10.15883 -10.15809 -10.15607 -10.15142 -10.14964
  Beta  occ. eigenvalues --  -10.14895 -10.14850 -10.14823 -10.14805 -10.14709
  Beta  occ. eigenvalues --  -10.14699 -10.14631 -10.14628 -10.14601 -10.14561
  Beta  occ. eigenvalues --  -10.14528 -10.14524 -10.14478 -10.14470 -10.14444
  Beta  occ. eigenvalues --  -10.14372 -10.14285 -10.14266 -10.14000 -10.13291
  Beta  occ. eigenvalues --  -10.12816 -10.12798 -10.12797 -10.12763 -10.12749
  Beta  occ. eigenvalues --  -10.12748 -10.12699 -10.12685 -10.12681 -10.12662
  Beta  occ. eigenvalues --  -10.12651 -10.12635 -10.12572 -10.12568 -10.12531
  Beta  occ. eigenvalues --  -10.12514 -10.12499 -10.12486 -10.12478 -10.12439
  Beta  occ. eigenvalues --  -10.12434 -10.12338 -10.12275 -10.12269 -10.12171
  Beta  occ. eigenvalues --  -10.12155 -10.12088 -10.11728  -7.92529  -7.92469
  Beta  occ. eigenvalues --   -7.92391  -7.92346  -7.92327  -7.92255  -7.92051
  Beta  occ. eigenvalues --   -5.94070  -5.94027  -5.93948  -5.93904  -5.93884
  Beta  occ. eigenvalues --   -5.93812  -5.93607  -5.93546  -5.93485  -5.93407
  Beta  occ. eigenvalues --   -5.93362  -5.93344  -5.93271  -5.93137  -5.93067
  Beta  occ. eigenvalues --   -5.93063  -5.92984  -5.92940  -5.92920  -5.92848
  Beta  occ. eigenvalues --   -5.92646  -1.34674  -1.34670  -1.34616  -1.34613
  Beta  occ. eigenvalues --   -1.34533  -1.34164  -1.34068  -1.21481  -1.21336
  Beta  occ. eigenvalues --   -1.21315  -1.21299  -1.21181  -1.20988  -1.20658
  Beta  occ. eigenvalues --   -1.05345  -1.05237  -1.05107  -1.04962  -1.04807
  Beta  occ. eigenvalues --   -1.04630  -1.04293  -1.02674  -1.02420  -1.02102
  Beta  occ. eigenvalues --   -1.01751  -1.01421  -1.01141  -1.00850  -0.95969
  Beta  occ. eigenvalues --   -0.95534  -0.94914  -0.94169  -0.93364  -0.92549
  Beta  occ. eigenvalues --   -0.91687  -0.90516  -0.90256  -0.90190  -0.90057
  Beta  occ. eigenvalues --   -0.90005  -0.89915  -0.89849  -0.89603  -0.89312
  Beta  occ. eigenvalues --   -0.89281  -0.89133  -0.89106  -0.89042  -0.88809
  Beta  occ. eigenvalues --   -0.88328  -0.87988  -0.87564  -0.86924  -0.86535
  Beta  occ. eigenvalues --   -0.86240  -0.85990  -0.83834  -0.83647  -0.83328
  Beta  occ. eigenvalues --   -0.82891  -0.82279  -0.81540  -0.80889  -0.78846
  Beta  occ. eigenvalues --   -0.78073  -0.77231  -0.76840  -0.76472  -0.76418
  Beta  occ. eigenvalues --   -0.76044  -0.75935  -0.75660  -0.75488  -0.74989
  Beta  occ. eigenvalues --   -0.74813  -0.74275  -0.73649  -0.71276  -0.71124
  Beta  occ. eigenvalues --   -0.70824  -0.70764  -0.70450  -0.70348  -0.70296
  Beta  occ. eigenvalues --   -0.69351  -0.69167  -0.69024  -0.68733  -0.68637
  Beta  occ. eigenvalues --   -0.68602  -0.68426  -0.67870  -0.67726  -0.67480
  Beta  occ. eigenvalues --   -0.67313  -0.67010  -0.66738  -0.66461  -0.65409
  Beta  occ. eigenvalues --   -0.64291  -0.64008  -0.63939  -0.63748  -0.63462
  Beta  occ. eigenvalues --   -0.62937  -0.62884  -0.62685  -0.62488  -0.62141
  Beta  occ. eigenvalues --   -0.61878  -0.61735  -0.61252  -0.61083  -0.60933
  Beta  occ. eigenvalues --   -0.60878  -0.60816  -0.60720  -0.60684  -0.60588
  Beta  occ. eigenvalues --   -0.60412  -0.60236  -0.60189  -0.60135  -0.60089
  Beta  occ. eigenvalues --   -0.59948  -0.59940  -0.59681  -0.59618  -0.59578
  Beta  occ. eigenvalues --   -0.59549  -0.59445  -0.59413  -0.59089  -0.59067
  Beta  occ. eigenvalues --   -0.58873  -0.58566  -0.58143  -0.57806  -0.57532
  Beta  occ. eigenvalues --   -0.57354  -0.56386  -0.56030  -0.55876  -0.55781
  Beta  occ. eigenvalues --   -0.55678  -0.55597  -0.55518  -0.55329  -0.55167
  Beta  occ. eigenvalues --   -0.55154  -0.55093  -0.54826  -0.54597  -0.54349
  Beta  occ. eigenvalues --   -0.53763  -0.53714  -0.53656  -0.53579  -0.53481
  Beta  occ. eigenvalues --   -0.53438  -0.53312  -0.52912  -0.52716  -0.52576
  Beta  occ. eigenvalues --   -0.52489  -0.52399  -0.52336  -0.52310  -0.52201
  Beta  occ. eigenvalues --   -0.52075  -0.51988  -0.51862  -0.51734  -0.51476
  Beta  occ. eigenvalues --   -0.51064  -0.50987  -0.50337  -0.50246  -0.49939
  Beta  occ. eigenvalues --   -0.49704  -0.49519  -0.49281  -0.49170  -0.49069
  Beta  occ. eigenvalues --   -0.48759  -0.48677  -0.48571  -0.48482  -0.48224
  Beta  occ. eigenvalues --   -0.48039  -0.47889  -0.47729  -0.47552  -0.47466
  Beta  occ. eigenvalues --   -0.47110  -0.46724  -0.46626  -0.46083  -0.45437
  Beta  occ. eigenvalues --   -0.45343  -0.45236  -0.45159  -0.45085  -0.45007
  Beta  occ. eigenvalues --   -0.44956  -0.44901  -0.44887  -0.44766  -0.44684
  Beta  occ. eigenvalues --   -0.44662  -0.44505  -0.44464  -0.44374  -0.44168
  Beta  occ. eigenvalues --   -0.44122  -0.44093  -0.43922  -0.43696  -0.41580
  Beta  occ. eigenvalues --   -0.41104  -0.40471  -0.39558  -0.38486  -0.37578
  Beta  occ. eigenvalues --   -0.36933  -0.35840  -0.35787  -0.35725  -0.35715
  Beta  occ. eigenvalues --   -0.35656  -0.35571  -0.35113  -0.34939  -0.34552
  Beta  occ. eigenvalues --   -0.34253  -0.34132  -0.34102  -0.34048  -0.33887
  Beta  occ. eigenvalues --   -0.31896  -0.31366  -0.30575  -0.29611  -0.28602
  Beta  occ. eigenvalues --   -0.27650  -0.27038
  Beta virt. eigenvalues --   -0.00312   0.00384   0.01374   0.02588   0.03804
  Beta virt. eigenvalues --    0.05126   0.06493   0.07044   0.07225   0.07436
  Beta virt. eigenvalues --    0.07579   0.07628   0.07740   0.07887   0.08393

 Mulliken charges and spin densities:
               1          2
     1  C    0.009828  -0.000000
     2  C    0.012762  -0.000000
     3  C   -0.000867  -0.000000
     4  C   -0.014842  -0.000000
     5  C    0.086703   0.000000
     6  F   -0.132703  -0.000000
     7  C    0.002333   0.000000
     8  C   -0.188411   0.000000
     9  C    0.163058   0.000000
    10  O   -0.263850   0.000000
    11  C    0.045046  -0.000000
    12  C   -0.012210  -0.000000
    13  C   -0.155959   0.000000
    14  S    0.187844  -0.000000
    15  C    0.052655  -0.000000
    16  C    0.003107   0.000000
    17  C    0.009227   0.000000
    18  C   -0.002012  -0.000000
    19  C    0.096583   0.000000
    20  F   -0.131885  -0.000000
    21  C   -0.009259  -0.000000
    22  C   -0.189544  -0.000000
    23  C    0.158279  -0.000000
    24  O   -0.264341  -0.000000
    25  C    0.045090  -0.000000
    26  C   -0.009167   0.000000
    27  C   -0.155953   0.000000
    28  S    0.189015   0.000000
    29  C    0.051336  -0.000000
    30  C    0.002437   0.000000
    31  C    0.008185  -0.000000
    32  C   -0.002977  -0.000000
    33  C    0.096487  -0.000000
    34  F   -0.130653  -0.000000
    35  C   -0.007856   0.000000
    36  C   -0.188600   0.000000
    37  C    0.158812  -0.000000
    38  O   -0.264541  -0.000000
    39  C    0.045272  -0.000000
    40  C   -0.008772  -0.000000
    41  C   -0.154749   0.000000
    42  S    0.188266  -0.000000
    43  C    0.047243   0.000000
    44  C   -0.001141  -0.000000
    45  C    0.012658   0.000000
    46  C   -0.003534  -0.000000
    47  C    0.095389   0.000000
    48  F   -0.129702   0.000000
    49  C   -0.000541  -0.000000
    50  C   -0.190289  -0.000000
    51  C    0.157997   0.000000
    52  O   -0.265019   0.000000
    53  C    0.045088  -0.000000
    54  C   -0.009633   0.000000
    55  C   -0.155855   0.000000
    56  S    0.191147   0.000000
    57  C    0.051320   0.000000
    58  C    0.002330   0.000000
    59  C    0.009214   0.000000
    60  C   -0.002105  -0.000000
    61  C    0.097196   0.000000
    62  F   -0.130883  -0.000000
    63  C   -0.008731  -0.000000
    64  C   -0.190057  -0.000000
    65  C    0.157665   0.000000
    66  O   -0.264171   0.000000
    67  C    0.045209  -0.000000
    68  C   -0.009082   0.000000
    69  C   -0.154742  -0.000000
    70  S    0.190661   0.000000
    71  C    0.049349   0.000000
    72  C   -0.000879  -0.000000
    73  C    0.010372   0.000000
    74  C   -0.002379  -0.000000
    75  C    0.093005   0.000000
    76  F   -0.128731   0.000000
    77  C   -0.001022  -0.000000
    78  C   -0.188928  -0.000000
    79  C    0.157497  -0.000000
    80  O   -0.265361   0.000000
    81  C    0.045352  -0.000000
    82  C   -0.007356   0.000000
    83  C   -0.156293  -0.000000
    84  S    0.191869  -0.000000
    85  C    0.045186   0.000000
    86  C   -0.007795   0.000000
    87  C    0.030397  -0.000000
    88  C   -0.025707   0.000000
    89  C    0.126123  -0.000000
    90  F   -0.117218  -0.000000
    91  C   -0.011525  -0.000000
    92  C   -0.232650  -0.000000
    93  C    0.167668   0.000000
    94  O   -0.244190  -0.000000
    95  C    0.040347  -0.000000
    96  C   -0.005682  -0.000000
    97  C   -0.135890   0.000000
    98  S    0.173563  -0.000000
    99  H    0.008808   0.000000
   100  H    0.003733  -0.000000
   101  H    0.010112   0.000000
   102  H    0.018577   0.000000
   103  H    0.061956   0.000000
   104  H    0.051921   0.000000
   105  H    0.051125   0.000000
   106  H    0.009836   0.000000
   107  H    0.007020   0.000000
   108  H    0.011988   0.000000
   109  H    0.008951  -0.000000
   110  H    0.050798   0.000000
   111  H    0.054125  -0.000000
   112  H    0.063391   0.000000
   113  H    0.010798   0.000000
   114  H    0.007512   0.000000
   115  H    0.012265   0.000000
   116  H    0.009721   0.000000
   117  H    0.051362   0.000000
   118  H    0.052859   0.000000
   119  H    0.063239  -0.000000
   120  H    0.010140  -0.000000
   121  H   -0.005870   0.000000
   122  H    0.011077  -0.000000
   123  H    0.021492   0.000000
   124  H    0.054701   0.000000
   125  H    0.062446   0.000000
   126  H    0.050850   0.000000
   127  H    0.010964   0.000000
   128  H    0.008163  -0.000000
   129  H    0.012240   0.000000
   130  H    0.009498  -0.000000
   131  H    0.050105   0.000000
   132  H    0.053897   0.000000
   133  H    0.063516   0.000000
   134  H    0.010121  -0.000000
   135  H   -0.005913  -0.000000
   136  H    0.010996   0.000000
   137  H    0.022827  -0.000000
   138  H    0.051730  -0.000000
   139  H    0.061930  -0.000000
   140  H    0.052970   0.000000
   141  H    0.010171  -0.000000
   142  H   -0.003313   0.000000
   143  H    0.006464   0.000000
   144  H    0.021837   0.000000
   145  H    0.050021   0.000000
   146  H    0.046833   0.000000
   147  H    0.062812  -0.000000
   148  H    0.014772  -0.000000
   149  H    0.042496   0.000000
 Sum of Mulliken charges =  -0.00000   0.00000

 Dipole moment (field-independent basis, Debye):
    X=             -6.1469    Y=             -0.3886    Z=             -0.2695  Tot=              6.1651
 Quadrupole moment (field-independent basis, Debye-Ang):
   XX=           -446.6190   YY=           -507.7482   ZZ=           -587.5138
   XY=             97.5574   XZ=             34.4320   YZ=              4.5147

 Normal termination of Gaussian 16 at Thu Jul 23 22:48:26 2020.
