 Gaussian 16, Revision A.03,
 Gaussian 16:  EM64L-G16RevA.03 25-Dec-2016

 ---------------------------------------------------------------
 #P uLC-wPBE/cc-pVDZ iop(3/107=0143000000, 3/108=0143000000) opt
 ---------------------------------------------------------------

 -------------
 H58 C77 S7 O7
 -------------
 Symbolic Z-matrix:
 Charge =  0 Multiplicity = 1

 SCF Done:  E(ULC-wPBE) =  -6278.51837559     A.U. after   18 cycles
 SCF Done:  E(ULC-wPBE) =  -6278.62405151     A.U. after   14 cycles
 SCF Done:  E(ULC-wPBE) =  -6278.73580360     A.U. after   15 cycles
 SCF Done:  E(ULC-wPBE) =  -6278.77151460     A.U. after   16 cycles
 SCF Done:  E(ULC-wPBE) =  -6278.78193292     A.U. after   16 cycles
 SCF Done:  E(ULC-wPBE) =  -6278.78752501     A.U. after   15 cycles
 SCF Done:  E(ULC-wPBE) =  -6278.79265576     A.U. after   17 cycles
 SCF Done:  E(ULC-wPBE) =  -6278.79542053     A.U. after   15 cycles
 SCF Done:  E(ULC-wPBE) =  -6278.79606988     A.U. after   13 cycles
 SCF Done:  E(ULC-wPBE) =  -6278.79623082     A.U. after   13 cycles
 SCF Done:  E(ULC-wPBE) =  -6278.79643719     A.U. after   10 cycles
 SCF Done:  E(ULC-wPBE) =  -6278.79643752     A.U. after   10 cycles
 SCF Done:  E(ULC-wPBE) =  -6278.79643748     A.U. after   10 cycles
 SCF Done:  E(ULC-wPBE) =  -6278.79643766     A.U. after   10 cycles
 SCF Done:  E(ULC-wPBE) =  -6278.79643774     A.U. after    7 cycles
 SCF Done:  E(ULC-wPBE) =  -6278.79643775     A.U. after    7 cycles
 SCF Done:  E(ULC-wPBE) =  -6278.79643810     A.U. after    7 cycles
 SCF Done:  E(ULC-wPBE) =  -6278.79643820     A.U. after    6 cycles
 SCF Done:  E(ULC-wPBE) =  -6278.79643811     A.U. after    7 cycles
 SCF Done:  E(ULC-wPBE) =  -6278.79643822     A.U. after    6 cycles
 Optimization completed.
    -- Stationary point found.

                         Standard orientation:
 ---------------------------------------------------------------------
 Center     Atomic      Atomic             Coordinates (Angstroms)
 Number     Number       Type             X           Y           Z
 ---------------------------------------------------------------------
      1          6           0       26.141921   -3.922098    3.105368
      2          6           0       24.844811   -4.322189    2.754917
      3          6           0       23.943137   -3.400553    2.214639
      4          6           0       24.307219   -2.047580    2.016730
      5          6           0       25.619390   -1.658010    2.376491
      6          6           0       26.519804   -2.586814    2.910303
      7          6           0       23.344044   -1.084668    1.465122
      8          6           0       23.552177    0.168658    0.881211
      9          8           0       24.817399    0.673797    0.752881
     10          6           0       24.942471    1.916613    0.069410
     11          6           0       22.353938    0.808818    0.440565
     12          6           0       21.213517    0.060710    0.685221
     13         16           0       21.626520   -1.436405    1.478591
     14          6           0       19.817455    0.399189    0.378893
     15          6           0       18.833100   -0.596489    0.198378
     16          6           0       17.513962   -0.261241   -0.102639
     17          6           0       17.104462    1.086432   -0.241308
     18          6           0       18.093122    2.083919   -0.060066
     19          6           0       19.411709    1.744732    0.245385
     20          6           0       15.711007    1.423491   -0.548033
     21          6           0       15.146353    2.625021   -0.990302
     22          8           0       15.931378    3.724443   -1.204714
     23          6           0       15.282608    4.882952   -1.720586
     24          6           0       13.735556    2.559985   -1.199262
     25          6           0       13.198359    1.314104   -0.917066
     26         16           0       14.444921    0.221751   -0.375068
     27          6           0       11.797665    0.882279   -1.010213
     28          6           0       10.745780    1.821585   -0.933272
     29          6           0        9.414713    1.422941   -1.040748
     30          6           0        9.057694    0.063695   -1.213267
     31          6           0       10.113463   -0.877207   -1.280521
     32          6           0       11.445767   -0.472637   -1.186901
     33          6           0        7.651535   -0.340152   -1.305993
     34          6           0        7.081933   -1.549876   -1.719534
     35          8           0        7.873438   -2.588492   -2.124656
     36          6           0        7.207006   -3.758196   -2.591330
     37          6           0        5.654597   -1.558676   -1.688959
     38          6           0        5.109961   -0.362957   -1.248705
     39         16           0        6.372798    0.773885   -0.856599
     40          6           0        3.693750   -0.011632   -1.082903
     41          6           0        2.717920   -1.015266   -0.894580
     42          6           0        1.370611   -0.691434   -0.747380
     43          6           0        0.921308    0.651212   -0.774627
     44          6           0        1.902239    1.655890   -0.956182
     45          6           0        3.249971    1.327383   -1.109017
     46          6           0       -0.501104    0.972548   -0.624518
     47          6           0       -1.132973    2.198000   -0.383447
     48          8           0       -0.401189    3.346618   -0.263767
     49          6           0       -1.121718    4.536607    0.044718
     50          6           0       -2.554385    2.107663   -0.283285
     51          6           0       -3.033062    0.818436   -0.452266
     52         16           0       -1.715327   -0.290017   -0.726511
     53          6           0       -4.425016    0.350677   -0.420283
     54          6           0       -5.413160    1.074384    0.282859
     55          6           0       -6.738051    0.643026    0.311516
     56          6           0       -7.150554   -0.534556   -0.357808
     57          6           0       -6.156859   -1.261951   -1.056330
     58          6           0       -4.831769   -0.825274   -1.085471
     59          6           0       -8.550467   -0.967827   -0.326388
     60          6           0       -9.126537   -2.194972   -0.674315
     61          8           0       -8.348723   -3.224343   -1.126313
     62          6           0       -9.009337   -4.459020   -1.390149
     63          6           0      -10.541380   -2.243792   -0.489402
     64          6           0      -11.070135   -1.058666   -0.003517
     65         16           0       -9.810563    0.128031    0.211135
     66          6           0      -12.471660   -0.741796    0.300566
     67          6           0      -13.523452   -1.444986   -0.327017
     68          6           0      -14.855698   -1.164210   -0.029462
     69          6           0      -15.213173   -0.154956    0.896904
     70          6           0      -14.157385    0.554986    1.517758
     71          6           0      -12.824220    0.261273    1.228131
     72          6           0      -16.620223    0.140165    1.184080
     73          6           0      -17.196245    0.883437    2.220698
     74          8           0      -16.411734    1.470557    3.174047
     75          6           0      -17.085899    2.147855    4.230948
     76          6           0      -18.622451    0.932239    2.175216
     77          6           0      -19.158962    0.234802    1.104899
     78         16           0      -17.890198   -0.473681    0.141217
     79          6           0      -20.571929    0.073145    0.737414
     80          6           0      -21.019465   -1.024359   -0.029295
     81          6           0      -22.365211   -1.170333   -0.362883
     82          6           0      -23.336767   -0.229193    0.051206
     83          6           0      -22.886906    0.870243    0.820473
     84          6           0      -21.538515    1.015638    1.149574
     85          6           0      -24.748799   -0.388782   -0.317034
     86          6           0      -25.893523    0.206004    0.223296
     87          8           0      -25.793932    1.095860    1.256923
     88          6           0      -27.017344    1.587150    1.797205
     89          6           0      -27.112966   -0.218205   -0.398153
     90          6           0      -26.893042   -1.125415   -1.409869
     91         16           0      -25.215312   -1.468713   -1.618778
     92          1           0       26.852998   -4.646860    3.525829
     93          1           0       24.531366   -5.366410    2.895834
     94          1           0       22.936696   -3.739041    1.927567
     95          1           0       25.925409   -0.615679    2.234875
     96          1           0       27.532837   -2.256955    3.182342
     97          1           0       26.022699    2.145171    0.048861
     98          1           0       24.407572    2.733783    0.600373
     99          1           0       24.563479    1.850710   -0.973232
    100          1           0       22.323026    1.774895   -0.073715
    101          1           0       19.114048   -1.657245    0.270518
    102          1           0       16.784853   -1.070248   -0.255064
    103          1           0       17.811462    3.138676   -0.147798
    104          1           0       20.142408    2.548708    0.411717
    105          1           0       14.816567    4.684508   -2.709617
    106          1           0       14.507233    5.264699   -1.021727
    107          1           0       16.071685    5.646491   -1.837956
    108          1           0       13.129126    3.388551   -1.579138
    109          1           0       10.975128    2.883715   -0.769975
    110          1           0        8.628113    2.189673   -0.987435
    111          1           0        9.877840   -1.937984   -1.415897
    112          1           0       12.238579   -1.230821   -1.267443
    113          1           0        6.581545   -4.218455   -1.796278
    114          1           0        6.571395   -3.540712   -3.476373
    115          1           0        8.003211   -4.466155   -2.881298
    116          1           0        5.035972   -2.402341   -2.011513
    117          1           0        3.024896   -2.068524   -0.833270
    118          1           0        0.648013   -1.504290   -0.584429
    119          1           0        1.593720    2.705974   -0.989447
    120          1           0        3.978180    2.134808   -1.275529
    121          1           0       -1.669185    4.444483    1.007185
    122          1           0       -0.364939    5.335907    0.132191
    123          1           0       -1.840116    4.801532   -0.760760
    124          1           0       -3.217496    2.964589   -0.126832
    125          1           0       -5.131483    1.976477    0.843479
    126          1           0       -7.470628    1.225250    0.889240
    127          1           0       -6.438119   -2.175039   -1.591450
    128          1           0       -4.094043   -1.403274   -1.661338
    129          1           0       -9.495436   -4.865425   -0.477424
    130          1           0       -8.223359   -5.158532   -1.725003
    131          1           0       -9.770017   -4.353546   -2.193509
    132          1           0      -11.157130   -3.130394   -0.671957
    133          1           0      -13.292831   -2.216338   -1.074779
    134          1           0      -15.642649   -1.744907   -0.532391
    135          1           0      -14.393752    1.341402    2.242198
    136          1           0      -12.031627    0.818506    1.748851
    137          1           0      -17.691692    2.998994    3.851791
    138          1           0      -16.294864    2.534562    4.897224
    139          1           0      -17.742211    1.458863    4.804627
    140          1           0      -19.246886    1.433772    2.921579
    141          1           0      -20.301086   -1.793306   -0.348608
    142          1           0      -22.673373   -2.051884   -0.943628
    143          1           0      -23.609410    1.625055    1.149283
    144          1           0      -21.222846    1.900716    1.719513
    145          1           0      -27.596107    2.165016    1.044535
    146          1           0      -26.735233    2.257185    2.628345
    147          1           0      -27.650299    0.763211    2.191197
    148          1           0      -28.111550    0.129482   -0.113849
    149          1           0      -27.634362   -1.607661   -2.054327
 ---------------------------------------------------------------------

 Alpha virt. eigenvalues --    0.18474   0.18578   0.19207   0.19762   0.19800
 Alpha virt. eigenvalues --    0.19925   0.20201   0.20220   0.20404   0.20474
 Alpha virt. eigenvalues --    0.20916   0.21221   0.21288   0.21404   0.21461

  Beta  occ. eigenvalues --  -88.18459 -88.17991 -88.17819 -88.17707 -88.17590
  Beta  occ. eigenvalues --  -88.17452 -88.17151 -18.89265 -18.89052 -18.88899
  Beta  occ. eigenvalues --  -18.88820 -18.88686 -18.88588 -18.88177 -10.04598
  Beta  occ. eigenvalues --  -10.04508 -10.04392 -10.04262 -10.04234 -10.04140
  Beta  occ. eigenvalues --  -10.04104 -10.04027 -10.04012 -10.03902 -10.03874
  Beta  occ. eigenvalues --  -10.03859 -10.03538 -10.03476 -10.01906 -10.01747
  Beta  occ. eigenvalues --  -10.01642 -10.01526 -10.01516 -10.01378 -10.01080
  Beta  occ. eigenvalues --  -10.01024 -10.00847 -10.00671 -10.00574 -10.00453
  Beta  occ. eigenvalues --  -10.00314 -10.00298 -10.00080 -10.00072  -9.99943
  Beta  occ. eigenvalues --   -9.99939  -9.99840  -9.99835  -9.99714  -9.99709
  Beta  occ. eigenvalues --   -9.99589  -9.99521  -9.99475  -9.99403  -9.99269
  Beta  occ. eigenvalues --   -9.99041  -9.98863  -9.98789  -9.98716  -9.98696
  Beta  occ. eigenvalues --   -9.98690  -9.98636  -9.98580  -9.98512  -9.98499
  Beta  occ. eigenvalues --   -9.98461  -9.98434  -9.98393  -9.98361  -9.98345
  Beta  occ. eigenvalues --   -9.98306  -9.98284  -9.98282  -9.98246  -9.98191
  Beta  occ. eigenvalues --   -9.98139  -9.98067  -9.98038  -9.98001  -9.97994
  Beta  occ. eigenvalues --   -9.97933  -9.97913  -9.97861  -9.97734  -9.97621
  Beta  occ. eigenvalues --   -9.97505  -9.97407  -9.97348  -9.97285  -9.97198
  Beta  occ. eigenvalues --   -9.96930  -7.78754  -7.78291  -7.78118  -7.78007
  Beta  occ. eigenvalues --   -7.77890  -7.77751  -7.77447  -5.80819  -5.80369
  Beta  occ. eigenvalues --   -5.80364  -5.80191  -5.80081  -5.79969  -5.79964
  Beta  occ. eigenvalues --   -5.79918  -5.79824  -5.79745  -5.79635  -5.79519
  Beta  occ. eigenvalues --   -5.79518  -5.79483  -5.79378  -5.79310  -5.79199
  Beta  occ. eigenvalues --   -5.79081  -5.79074  -5.78943  -5.78643  -1.07110
  Beta  occ. eigenvalues --   -1.06904  -1.06749  -1.06666  -1.06535  -1.06431
  Beta  occ. eigenvalues --   -1.06037  -0.89747  -0.89528  -0.89391  -0.89305
  Beta  occ. eigenvalues --   -0.89191  -0.89020  -0.88697  -0.86774  -0.86464
  Beta  occ. eigenvalues --   -0.86159  -0.85830  -0.85502  -0.85180  -0.84591
  Beta  occ. eigenvalues --   -0.81062  -0.80594  -0.80017  -0.79341  -0.78616
  Beta  occ. eigenvalues --   -0.77886  -0.77086  -0.76793  -0.76677  -0.76550
  Beta  occ. eigenvalues --   -0.76415  -0.76254  -0.76053  -0.75869  -0.75787
  Beta  occ. eigenvalues --   -0.75644  -0.75494  -0.75310  -0.75213  -0.74916
  Beta  occ. eigenvalues --   -0.74550  -0.74306  -0.74133  -0.73759  -0.73340
  Beta  occ. eigenvalues --   -0.73006  -0.72728  -0.72243  -0.71125  -0.70751
  Beta  occ. eigenvalues --   -0.70420  -0.69952  -0.69309  -0.68556  -0.67817
  Beta  occ. eigenvalues --   -0.65968  -0.65087  -0.64186  -0.63788  -0.63469
  Beta  occ. eigenvalues --   -0.63382  -0.63205  -0.62884  -0.62650  -0.62432
  Beta  occ. eigenvalues --   -0.62084  -0.61589  -0.61366  -0.60822  -0.59557
  Beta  occ. eigenvalues --   -0.59057  -0.58653  -0.58347  -0.58158  -0.57985
  Beta  occ. eigenvalues --   -0.57916  -0.57720  -0.57639  -0.57574  -0.57429
  Beta  occ. eigenvalues --   -0.57263  -0.57083  -0.56832  -0.56704  -0.56452
  Beta  occ. eigenvalues --   -0.56233  -0.55919  -0.55583  -0.55358  -0.55072
  Beta  occ. eigenvalues --   -0.51734  -0.51516  -0.51435  -0.51259  -0.51100
  Beta  occ. eigenvalues --   -0.50896  -0.50569  -0.50530  -0.50432  -0.50217
  Beta  occ. eigenvalues --   -0.50149  -0.50014  -0.49942  -0.49836  -0.49776
  Beta  occ. eigenvalues --   -0.49715  -0.49469  -0.49368  -0.49187  -0.49123
  Beta  occ. eigenvalues --   -0.48860  -0.48590  -0.48304  -0.48204  -0.48110
  Beta  occ. eigenvalues --   -0.47896  -0.47772  -0.47714  -0.47052  -0.46996
  Beta  occ. eigenvalues --   -0.46539  -0.46395  -0.46281  -0.46180  -0.46028
  Beta  occ. eigenvalues --   -0.45688  -0.45608  -0.45355  -0.45142  -0.44971
  Beta  occ. eigenvalues --   -0.44836  -0.44784  -0.44719  -0.44646  -0.44507
  Beta  occ. eigenvalues --   -0.44459  -0.44310  -0.44240  -0.44223  -0.43885
  Beta  occ. eigenvalues --   -0.43800  -0.43691  -0.43646  -0.43560  -0.43411
  Beta  occ. eigenvalues --   -0.43166  -0.42875  -0.42766  -0.42607  -0.42439
  Beta  occ. eigenvalues --   -0.42376  -0.42105  -0.41928  -0.41630  -0.41461
  Beta  occ. eigenvalues --   -0.41126  -0.40765  -0.40682  -0.40364  -0.40228
  Beta  occ. eigenvalues --   -0.40103  -0.39965  -0.39874  -0.39740  -0.39575
  Beta  occ. eigenvalues --   -0.39492  -0.39290  -0.39214  -0.39151  -0.38892
  Beta  occ. eigenvalues --   -0.38869  -0.38516  -0.38219  -0.37922  -0.37724
  Beta  occ. eigenvalues --   -0.37369  -0.37207  -0.36933  -0.36868  -0.36709
  Beta  occ. eigenvalues --   -0.36640  -0.36609  -0.36585  -0.36433  -0.36293
  Beta  occ. eigenvalues --   -0.36225  -0.36106  -0.35992  -0.35977  -0.35810
  Beta  occ. eigenvalues --   -0.35765  -0.35552  -0.35312  -0.35127  -0.34975
  Beta  occ. eigenvalues --   -0.34775  -0.34170  -0.33738  -0.33218  -0.32515
  Beta  occ. eigenvalues --   -0.31748  -0.30893  -0.30296  -0.30105  -0.30036
  Beta  occ. eigenvalues --   -0.29946  -0.29829  -0.29711  -0.29523  -0.28915
  Beta  occ. eigenvalues --   -0.28839  -0.28419  -0.28159  -0.27973  -0.27842
  Beta  occ. eigenvalues --   -0.27671  -0.27335  -0.26207  -0.25594  -0.24759
  Beta  occ. eigenvalues --   -0.23778  -0.22767  -0.21884  -0.21211
  Beta virt. eigenvalues --   -0.03625  -0.02919  -0.01959  -0.00860   0.00331
  Beta virt. eigenvalues --    0.01459   0.02405   0.02667   0.02941   0.03097
  Beta virt. eigenvalues --    0.03132   0.03276   0.03494   0.03818   0.04194

 Mulliken charges and spin densities:
               1          2
     1  C    0.022852  -0.000000
     2  C    0.031503   0.000000
     3  C   -0.016870   0.000000
     4  C    0.077138  -0.000000
     5  C   -0.002370   0.000000
     6  C    0.035796   0.000000
     7  C   -0.169304   0.000000
     8  C    0.138124  -0.000000
     9  O   -0.246058  -0.000000
    10  C    0.066436  -0.000000
    11  C    0.007936  -0.000000
    12  C   -0.140802  -0.000000
    13  S    0.134093   0.000000
    14  C    0.088616   0.000000
    15  C    0.001627   0.000000
    16  C   -0.008964  -0.000000
    17  C    0.099900   0.000000
    18  C    0.005850  -0.000000
    19  C    0.004882   0.000000
    20  C   -0.168423  -0.000000
    21  C    0.131921   0.000000
    22  O   -0.247269  -0.000000
    23  C    0.066834   0.000000
    24  C    0.011518  -0.000000
    25  C   -0.139062   0.000000
    26  S    0.133704  -0.000000
    27  C    0.086515   0.000000
    28  C   -0.000384  -0.000000
    29  C   -0.006534   0.000000
    30  C    0.099268  -0.000000
    31  C    0.004863   0.000000
    32  C    0.006831  -0.000000
    33  C   -0.167825  -0.000000
    34  C    0.133489   0.000000
    35  O   -0.246825   0.000000
    36  C    0.066636   0.000000
    37  C    0.011501  -0.000000
    38  C   -0.138679  -0.000000
    39  S    0.130779  -0.000000
    40  C    0.089185   0.000000
    41  C   -0.000377  -0.000000
    42  C   -0.008446   0.000000
    43  C    0.099251  -0.000000
    44  C    0.002187   0.000000
    45  C    0.006594  -0.000000
    46  C   -0.164899  -0.000000
    47  C    0.133037   0.000000
    48  O   -0.247174  -0.000000
    49  C    0.066764   0.000000
    50  C    0.012866  -0.000000
    51  C   -0.136718  -0.000000
    52  S    0.126905  -0.000000
    53  C    0.086018   0.000000
    54  C   -0.000916  -0.000000
    55  C   -0.007146   0.000000
    56  C    0.100923  -0.000000
    57  C    0.004940   0.000000
    58  C    0.005986  -0.000000
    59  C   -0.168293   0.000000
    60  C    0.133070  -0.000000
    61  O   -0.246795   0.000000
    62  C    0.066456   0.000000
    63  C    0.012214   0.000000
    64  C   -0.138557  -0.000000
    65  S    0.131945   0.000000
    66  C    0.086250   0.000000
    67  C   -0.000101  -0.000000
    68  C   -0.006093   0.000000
    69  C    0.098885  -0.000000
    70  C    0.005480  -0.000000
    71  C    0.006914   0.000000
    72  C   -0.168082   0.000000
    73  C    0.133713  -0.000000
    74  O   -0.246600   0.000000
    75  C    0.066442  -0.000000
    76  C    0.011253   0.000000
    77  C   -0.138745  -0.000000
    78  S    0.132542   0.000000
    79  C    0.087316   0.000000
    80  C    0.000021   0.000000
    81  C   -0.005759   0.000000
    82  C    0.107090  -0.000000
    83  C    0.008375   0.000000
    84  C    0.004089  -0.000000
    85  C   -0.185193   0.000000
    86  C    0.119489  -0.000000
    87  O   -0.244051   0.000000
    88  C    0.062676   0.000000
    89  C    0.037040   0.000000
    90  C   -0.117923  -0.000000
    91  S    0.148164  -0.000000
    92  H   -0.025866  -0.000000
    93  H   -0.023242  -0.000000
    94  H   -0.021647   0.000000
    95  H   -0.029837  -0.000000
    96  H   -0.024225   0.000000
    97  H    0.048229   0.000000
    98  H    0.042739  -0.000000
    99  H    0.045233   0.000000
   100  H   -0.018865  -0.000000
   101  H   -0.022638  -0.000000
   102  H   -0.019325  -0.000000
   103  H   -0.029820  -0.000000
   104  H   -0.035242  -0.000000
   105  H    0.046480  -0.000000
   106  H    0.044197  -0.000000
   107  H    0.048497  -0.000000
   108  H   -0.018154  -0.000000
   109  H   -0.034057  -0.000000
   110  H   -0.020215  -0.000000
   111  H   -0.027926  -0.000000
   112  H   -0.023009  -0.000000
   113  H    0.044597   0.000000
   114  H    0.046719  -0.000000
   115  H    0.050020  -0.000000
   116  H   -0.017573   0.000000
   117  H   -0.033654  -0.000000
   118  H   -0.017636  -0.000000
   119  H   -0.028177  -0.000000
   120  H   -0.023601  -0.000000
   121  H    0.044720  -0.000000
   122  H    0.049957  -0.000000
   123  H    0.046942  -0.000000
   124  H   -0.017337  -0.000000
   125  H   -0.033583   0.000000
   126  H   -0.019871   0.000000
   127  H   -0.027922   0.000000
   128  H   -0.021647   0.000000
   129  H    0.047091  -0.000000
   130  H    0.050083  -0.000000
   131  H    0.044637  -0.000000
   132  H   -0.017374   0.000000
   133  H   -0.033205   0.000000
   134  H   -0.019684   0.000000
   135  H   -0.027868  -0.000000
   136  H   -0.023117  -0.000000
   137  H    0.044480   0.000000
   138  H    0.050289   0.000000
   139  H    0.046888   0.000000
   140  H   -0.017350   0.000000
   141  H   -0.021356   0.000000
   142  H   -0.018999   0.000000
   143  H   -0.027492   0.000000
   144  H   -0.033701   0.000000
   145  H    0.045620  -0.000000
   146  H    0.050328  -0.000000
   147  H    0.045529  -0.000000
   148  H   -0.010691  -0.000000
   149  H    0.021174  -0.000000
 Sum of Mulliken charges =  -0.00000  -0.00000

 Dipole moment (field-independent basis, Debye):
    X=            -13.9487    Y=              3.5552    Z=             -0.4173  Tot=             14.4007
 Quadrupole moment (field-independent basis, Debye-Ang):
   XX=           -384.1684   YY=           -491.9281   ZZ=           -570.4190
   XY=             40.8423   XZ=            -85.2419   YZ=             24.9165

 Normal termination of Gaussian 16 at Fri Jul 24 02:01:11 2020.
