 Gaussian 16, Revision A.03,
 Gaussian 16:  EM64L-G16RevA.03 25-Dec-2016

 ---------------------------------------------------------------
 #P uLC-wPBE/cc-pVDZ iop(3/107=0061100000, 3/108=0061100000) opt
 ---------------------------------------------------------------

 ---------------
 H72 C84 N14 O14
 ---------------
 Symbolic Z-matrix:
 Charge =  0 Multiplicity = 1

 SCF Done:  E(ULC-wPBE) =  -5058.48097651     A.U. after   16 cycles
 SCF Done:  E(ULC-wPBE) =  -5058.60202086     A.U. after   14 cycles
 SCF Done:  E(ULC-wPBE) =  -5058.74489583     A.U. after   14 cycles
 SCF Done:  E(ULC-wPBE) =  -5058.80853799     A.U. after   17 cycles
 SCF Done:  E(ULC-wPBE) =  -5058.82494367     A.U. after   15 cycles
 SCF Done:  E(ULC-wPBE) =  -5058.83508790     A.U. after   17 cycles
 SCF Done:  E(ULC-wPBE) =  -5058.84076066     A.U. after   16 cycles
 SCF Done:  E(ULC-wPBE) =  -5058.84282666     A.U. after   16 cycles
 SCF Done:  E(ULC-wPBE) =  -5058.84545104     A.U. after   14 cycles
 SCF Done:  E(ULC-wPBE) =  -5058.84697922     A.U. after   14 cycles
 SCF Done:  E(ULC-wPBE) =  -5058.84876363     A.U. after   14 cycles
 SCF Done:  E(ULC-wPBE) =  -5058.84879020     A.U. after   13 cycles
 SCF Done:  E(ULC-wPBE) =  -5058.84879183     A.U. after   11 cycles
 SCF Done:  E(ULC-wPBE) =  -5058.84879252     A.U. after   10 cycles
 SCF Done:  E(ULC-wPBE) =  -5058.84879227     A.U. after   10 cycles
 SCF Done:  E(ULC-wPBE) =  -5058.84879256     A.U. after    7 cycles
 SCF Done:  E(ULC-wPBE) =  -5058.84879273     A.U. after    7 cycles
 SCF Done:  E(ULC-wPBE) =  -5058.84879271     A.U. after    6 cycles
 SCF Done:  E(ULC-wPBE) =  -5058.84879272     A.U. after    5 cycles
 SCF Done:  E(ULC-wPBE) =  -5058.84879271     A.U. after    5 cycles
 Optimization completed.
    -- Stationary point found.

                         Standard orientation:
 ---------------------------------------------------------------------
 Center     Atomic      Atomic             Coordinates (Angstroms)
 Number     Number       Type             X           Y           Z
 ---------------------------------------------------------------------
      1          6           0       28.605007   -3.132542   -0.930176
      2          6           0       28.391544   -1.950369   -0.206031
      3          6           0       27.073606   -1.485904   -0.057876
      4          8           0       26.710304   -0.379465    0.655370
      5          6           0       27.751250    0.384929    1.257395
      6          6           0       26.019860   -2.226612   -0.663386
      7          7           0       26.234497   -3.367694   -1.339303
      8          6           0       27.501751   -3.805236   -1.467590
      9          6           0       24.591634   -1.792711   -0.527957
     10          7           0       23.748507   -2.667859    0.044243
     11          6           0       22.452200   -2.335211    0.157493
     12          6           0       21.905832   -1.117790   -0.299137
     13          6           0       22.791351   -0.203615   -0.909836
     14          6           0       24.147494   -0.537954   -1.032808
     15          8           0       25.087365    0.239116   -1.645932
     16          6           0       24.670094    1.506395   -2.146356
     17          6           0       20.466739   -0.808662   -0.142441
     18          6           0       20.005348    0.492335    0.134072
     19          6           0       18.632941    0.736186    0.281851
     20          8           0       18.188803    1.980422    0.664056
     21          6           0       18.155940    2.954332   -0.391149
     22          6           0       17.728273   -0.347191    0.142172
     23          7           0       18.163371   -1.603838   -0.107040
     24          6           0       19.477936   -1.815052   -0.251862
     25          6           0       16.253230   -0.151206    0.244384
     26          7           0       15.722507    0.889531   -0.438115
     27          6           0       14.394308    1.059328   -0.423596
     28          6           0       13.488464    0.221273    0.267381
     29          6           0       14.051801   -0.838564    1.002993
     30          6           0       15.440701   -1.029444    1.006762
     31          8           0       16.007258   -1.996347    1.800960
     32          6           0       15.875546   -3.339203    1.304662
     33          6           0       12.029636    0.470216    0.239880
     34          6           0       11.375748    0.955027   -0.908648
     35          6           0        9.992962    1.184550   -0.884906
     36          8           0        9.365797    1.752483   -1.967540
     37          6           0        9.136363    0.857401   -3.068872
     38          6           0        9.273616    0.901107    0.304639
     39          7           0        9.899911    0.467234    1.422729
     40          6           0       11.222276    0.260669    1.382067
     41          6           0        7.790819    1.047566    0.373538
     42          7           0        7.075821    0.528194   -0.650771
     43          6           0        5.738723    0.584308   -0.598541
     44          6           0        5.003541    1.161914    0.463554
     45          6           0        5.757048    1.729660    1.508074
     46          6           0        7.157513    1.686279    1.470406
     47          8           0        7.897177    2.326999    2.435963
     48          6           0        7.978649    1.630926    3.691162
     49          6           0        3.523521    1.183265    0.453959
     50          6           0        2.798029    2.280346    0.965797
     51          6           0        1.396257    2.252944    0.932953
     52          8           0        0.587791    3.230457    1.434611
     53          6           0        1.214004    4.380349    1.998146
     54          6           0        0.747346    1.124729    0.355258
     55          7           0        1.436371    0.066954   -0.104635
     56          6           0        2.777749    0.098414   -0.053000
     57          6           0       -0.745128    1.034977    0.281337
     58          7           0       -1.312502   -0.028942    0.875138
     59          6           0       -2.646102   -0.167372    0.809003
     60          6           0       -3.504577    0.730188    0.139897
     61          6           0       -2.904971    1.838999   -0.495239
     62          6           0       -1.512933    1.998532   -0.431431
     63          8           0       -0.817394    2.997564   -1.048538
     64          6           0       -1.567263    3.987554   -1.748974
     65          6           0       -4.970450    0.525986    0.109118
     66          6           0       -5.531663   -0.766684    0.031797
     67          6           0       -6.926750   -0.910571    0.011053
     68          8           0       -7.583084   -2.106538   -0.016808
     69          6           0       -6.791757   -3.292011   -0.057604
     70          6           0       -7.736633    0.260099    0.035501
     71          7           0       -7.204462    1.489945    0.138021
     72          6           0       -5.868189    1.612045    0.176985
     73          6           0       -9.230884    0.177804    0.003101
     74          7           0       -9.886958    0.756426    1.023456
     75          6           0      -11.228508    0.710954    1.035867
     76          6           0      -12.008409    0.083356    0.041971
     77          6           0      -11.319434   -0.496396   -1.044975
     78          6           0       -9.918376   -0.439089   -1.080100
     79          8           0       -9.146931   -0.923221   -2.096406
     80          6           0       -9.812310   -1.567932   -3.179767
     81          6           0      -13.486133    0.051505    0.123191
     82          6           0      -14.162599   -0.082823    1.350829
     83          6           0      -15.563966   -0.097772    1.379314
     84          8           0      -16.236898   -0.133790    2.578334
     85          6           0      -16.268994   -1.424593    3.208910
     86          6           0      -16.272779    0.006786    0.155423
     87          7           0      -15.634835    0.167679   -1.025413
     88          6           0      -14.296215    0.184602   -1.029545
     89          6           0      -17.762840   -0.082992    0.114709
     90          7           0      -18.327433   -1.124852    0.752965
     91          6           0      -19.658468   -1.287126    0.689931
     92          6           0      -20.522210   -0.426999   -0.017976
     93          6           0      -19.937336    0.682991   -0.663096
     94          6           0      -18.548471    0.875731   -0.591769
     95          8           0      -17.888315    1.930317   -1.140441
     96          6           0      -18.658951    2.897375   -1.850593
     97          6           0      -21.981785   -0.668867   -0.060935
     98          6           0      -22.520000   -1.967638   -0.137355
     99          6           0      -23.909682   -2.149851   -0.171310
    100          8           0      -24.440138   -3.403069   -0.362206
    101          6           0      -24.426866   -4.243733    0.803159
    102          6           0      -24.750862   -1.009009   -0.120108
    103          7           0      -24.241987    0.243274   -0.066016
    104          6           0      -22.911928    0.396160   -0.029419
    105          6           0      -26.238236   -1.138454   -0.099490
    106          7           0      -26.757535   -2.046818    0.758067
    107          6           0      -28.093637   -2.151957    0.844932
    108          6           0      -28.985332   -1.377941    0.086593
    109          6           0      -28.453532   -0.454939   -0.820032
    110          6           0      -27.058651   -0.330173   -0.927713
    111          8           0      -26.500787    0.487514   -1.881780
    112          6           0      -26.545121    1.888952   -1.569365
    113          1           0       29.623076   -3.525883   -1.065768
    114          1           0       29.238480   -1.413232    0.240416
    115          1           0       28.323945   -0.211543    2.001777
    116          1           0       27.250104    1.223275    1.773748
    117          1           0       28.456750    0.789847    0.498183
    118          1           0       27.634292   -4.742069   -2.033215
    119          1           0       21.810988   -3.070435    0.670513
    120          1           0       22.402867    0.739447   -1.316443
    121          1           0       24.275782    2.159009   -1.336033
    122          1           0       23.895010    1.403109   -2.937817
    123          1           0       25.572896    1.970438   -2.582246
    124          1           0       20.709135    1.323048    0.292583
    125          1           0       17.388083    2.669403   -1.140693
    126          1           0       17.880453    3.914071    0.084488
    127          1           0       19.150228    3.062013   -0.880471
    128          1           0       19.774638   -2.848823   -0.493643
    129          1           0       14.016144    1.933376   -0.979838
    130          1           0       13.419829   -1.526523    1.583565
    131          1           0       16.281718   -3.998718    2.093866
    132          1           0       14.811093   -3.605382    1.118920
    133          1           0       16.468881   -3.452879    0.373453
    134          1           0       11.931902    1.162565   -1.834602
    135          1           0       10.080685    0.378313   -3.411343
    136          1           0        8.726888    1.477648   -3.887770
    137          1           0        8.397187    0.083827   -2.773289
    138          1           0       11.684740   -0.074101    2.325670
    139          1           0        5.205149    0.164172   -1.466936
    140          1           0        5.265816    2.215261    2.364442
    141          1           0        6.968796    1.407036    4.101962
    142          1           0        8.510216    2.309362    4.384157
    143          1           0        8.557339    0.692602    3.561386
    144          1           0        3.336426    3.148825    1.367652
    145          1           0        1.856975    4.115742    2.866612
    146          1           0        1.826700    4.924896    1.246047
    147          1           0        0.391644    5.033090    2.341419
    148          1           0        3.294752   -0.804454   -0.417253
    149          1           0       -3.065480   -1.033174    1.347914
    150          1           0       -3.529191    2.539487   -1.064850
    151          1           0       -2.269782    4.524568   -1.074145
    152          1           0       -2.141645    3.548601   -2.594469
    153          1           0       -0.824433    4.701461   -2.147576
    154          1           0       -4.871683   -1.641651   -0.028604
    155          1           0       -7.508909   -4.132202   -0.066119
    156          1           0       -6.163224   -3.335473   -0.974391
    157          1           0       -6.135310   -3.380353    0.836004
    158          1           0       -5.482783    2.638986    0.290985
    159          1           0      -11.719046    1.222877    1.880318
    160          1           0      -11.884412   -1.000274   -1.839883
    161          1           0       -9.016577   -1.875060   -3.881773
    162          1           0      -10.514198   -0.879979   -3.700983
    163          1           0      -10.371828   -2.468005   -2.841581
    164          1           0      -13.608880   -0.175338    2.296642
    165          1           0      -15.244573   -1.830392    3.365857
    166          1           0      -16.753337   -1.274522    4.191814
    167          1           0      -16.869275   -2.127204    2.593372
    168          1           0      -13.822837    0.338202   -2.014398
    169          1           0      -20.068433   -2.141817    1.252359
    170          1           0      -20.570930    1.374080   -1.233736
    171          1           0      -17.936452    3.656200   -2.199618
    172          1           0      -19.172112    2.448488   -2.729337
    173          1           0      -19.416036    3.383470   -1.196032
    174          1           0      -21.866693   -2.847905   -0.226308
    175          1           0      -24.778854   -5.237472    0.469061
    176          1           0      -23.401967   -4.343057    1.225672
    177          1           0      -25.119687   -3.833384    1.567408
    178          1           0      -22.551209    1.435021    0.055964
    179          1           0      -28.472650   -2.898482    1.562486
    180          1           0      -30.071873   -1.508158    0.194300
    181          1           0      -29.098561    0.154867   -1.469403
    182          1           0      -26.166563    2.416083   -2.465005
    183          1           0      -27.583161    2.230377   -1.357796
    184          1           0      -25.887849    2.099478   -0.699596
 ---------------------------------------------------------------------

 Alpha virt. eigenvalues --    0.63780   0.63856   0.63992   0.64053   0.64080
 Alpha virt. eigenvalues --    0.64168   0.64282   0.64469   0.64545   0.64560
 Alpha virt. eigenvalues --    0.64698   0.64921   0.64959   0.64996   0.65125

  Beta  occ. eigenvalues --  -18.84485 -18.84479 -18.84358 -18.84352 -18.84324
  Beta  occ. eigenvalues --  -18.84297 -18.84287 -18.81910 -18.81899 -18.81889
  Beta  occ. eigenvalues --  -18.81872 -18.81859 -18.81849 -18.81563 -14.03634
  Beta  occ. eigenvalues --  -14.03629 -14.03590 -14.03505 -14.03448 -14.03388
  Beta  occ. eigenvalues --  -14.03386 -14.02824 -14.02638 -14.02538 -14.02505
  Beta  occ. eigenvalues --  -14.02476 -14.02464 -14.02258 -10.00282 -10.00041
  Beta  occ. eigenvalues --   -9.99979  -9.99872  -9.99871  -9.99814  -9.99739
  Beta  occ. eigenvalues --   -9.99737  -9.99667  -9.99597  -9.99571  -9.99558
  Beta  occ. eigenvalues --   -9.99550  -9.99528  -9.99495  -9.99492  -9.99463
  Beta  occ. eigenvalues --   -9.99446  -9.99429  -9.99425  -9.99082  -9.97645
  Beta  occ. eigenvalues --   -9.97631  -9.97513  -9.97508  -9.97499  -9.97453
  Beta  occ. eigenvalues --   -9.97451  -9.97426  -9.97362  -9.97353  -9.97339
  Beta  occ. eigenvalues --   -9.97313  -9.97274  -9.97262  -9.96922  -9.96856
  Beta  occ. eigenvalues --   -9.96855  -9.96854  -9.96809  -9.96769  -9.96702
  Beta  occ. eigenvalues --   -9.96692  -9.96652  -9.96649  -9.96601  -9.96584
  Beta  occ. eigenvalues --   -9.96579  -9.96275  -9.96232  -9.96049  -9.96036
  Beta  occ. eigenvalues --   -9.95942  -9.95847  -9.95837  -9.95794  -9.95791
  Beta  occ. eigenvalues --   -9.95716  -9.95621  -9.95608  -9.95589  -9.95576
  Beta  occ. eigenvalues --   -9.95503  -9.95486  -9.95360  -9.95351  -9.95321
  Beta  occ. eigenvalues --   -9.95304  -9.95284  -9.95279  -9.95240  -9.95195
  Beta  occ. eigenvalues --   -9.95191  -9.95171  -9.95154  -9.95027  -9.94988
  Beta  occ. eigenvalues --   -9.94883  -9.94819  -9.94805  -9.94765  -9.94754
  Beta  occ. eigenvalues --   -9.94709  -9.94246  -1.02479  -1.02444  -1.02369
  Beta  occ. eigenvalues --   -1.02286  -1.01961  -1.01928  -1.01864  -0.99955
  Beta  occ. eigenvalues --   -0.99952  -0.99949  -0.99802  -0.99800  -0.99795
  Beta  occ. eigenvalues --   -0.99530  -0.90265  -0.90125  -0.90112  -0.89900
  Beta  occ. eigenvalues --   -0.89746  -0.89582  -0.89546  -0.88892  -0.88691
  Beta  occ. eigenvalues --   -0.88688  -0.88403  -0.87964  -0.87698  -0.87659
  Beta  occ. eigenvalues --   -0.79548  -0.79343  -0.79165  -0.78963  -0.78823
  Beta  occ. eigenvalues --   -0.78397  -0.76207  -0.75750  -0.75561  -0.75539
  Beta  occ. eigenvalues --   -0.75440  -0.75400  -0.75335  -0.75077  -0.74891
  Beta  occ. eigenvalues --   -0.74888  -0.74770  -0.74634  -0.74408  -0.74267
  Beta  occ. eigenvalues --   -0.74018  -0.72844  -0.72320  -0.71798  -0.71153
  Beta  occ. eigenvalues --   -0.70657  -0.69977  -0.69716  -0.68114  -0.67995
  Beta  occ. eigenvalues --   -0.67910  -0.67774  -0.67206  -0.67027  -0.66843
  Beta  occ. eigenvalues --   -0.66382  -0.66313  -0.66246  -0.65741  -0.65712
  Beta  occ. eigenvalues --   -0.65602  -0.65559  -0.64739  -0.64137  -0.63648
  Beta  occ. eigenvalues --   -0.62791  -0.61911  -0.61423  -0.61011  -0.60209
  Beta  occ. eigenvalues --   -0.60186  -0.60045  -0.59636  -0.59448  -0.59265
  Beta  occ. eigenvalues --   -0.59163  -0.58853  -0.58654  -0.58293  -0.58102
  Beta  occ. eigenvalues --   -0.57907  -0.57589  -0.57470  -0.57369  -0.56978
  Beta  occ. eigenvalues --   -0.56712  -0.56550  -0.56287  -0.56050  -0.55959
  Beta  occ. eigenvalues --   -0.52732  -0.52478  -0.52369  -0.52256  -0.51899
  Beta  occ. eigenvalues --   -0.51766  -0.51487  -0.51282  -0.50948  -0.50747
  Beta  occ. eigenvalues --   -0.50638  -0.50536  -0.50357  -0.50189  -0.49890
  Beta  occ. eigenvalues --   -0.49650  -0.49587  -0.49261  -0.49170  -0.49153
  Beta  occ. eigenvalues --   -0.48878  -0.48449  -0.48404  -0.48285  -0.48143
  Beta  occ. eigenvalues --   -0.48045  -0.47998  -0.47695  -0.47593  -0.47570
  Beta  occ. eigenvalues --   -0.47448  -0.47166  -0.47052  -0.46704  -0.46645
  Beta  occ. eigenvalues --   -0.46187  -0.46052  -0.45794  -0.45760  -0.45650
  Beta  occ. eigenvalues --   -0.45634  -0.45494  -0.45350  -0.45317  -0.45229
  Beta  occ. eigenvalues --   -0.45180  -0.44741  -0.44275  -0.44239  -0.44183
  Beta  occ. eigenvalues --   -0.44176  -0.43917  -0.43905  -0.43869  -0.43808
  Beta  occ. eigenvalues --   -0.43582  -0.42747  -0.42455  -0.42284  -0.42260
  Beta  occ. eigenvalues --   -0.42172  -0.42037  -0.41967  -0.41833  -0.41814
  Beta  occ. eigenvalues --   -0.41788  -0.41667  -0.41547  -0.41525  -0.41481
  Beta  occ. eigenvalues --   -0.41423  -0.41371  -0.40996  -0.40890  -0.40565
  Beta  occ. eigenvalues --   -0.40547  -0.40198  -0.40097  -0.39987  -0.39952
  Beta  occ. eigenvalues --   -0.39853  -0.39825  -0.39754  -0.39737  -0.39567
  Beta  occ. eigenvalues --   -0.39522  -0.39365  -0.39345  -0.39287  -0.39025
  Beta  occ. eigenvalues --   -0.38688  -0.38596  -0.38565  -0.38500  -0.38414
  Beta  occ. eigenvalues --   -0.38293  -0.38123  -0.38068  -0.37990  -0.37796
  Beta  occ. eigenvalues --   -0.37724  -0.37679  -0.37452  -0.37294  -0.37171
  Beta  occ. eigenvalues --   -0.37059  -0.36874  -0.36740  -0.36571  -0.36500
  Beta  occ. eigenvalues --   -0.36337  -0.36247  -0.36168  -0.34024  -0.33978
  Beta  occ. eigenvalues --   -0.33883  -0.33802  -0.33773  -0.33681  -0.33630
  Beta  occ. eigenvalues --   -0.33575  -0.33553  -0.33500  -0.33409  -0.33332
  Beta  occ. eigenvalues --   -0.33234  -0.33213  -0.32987  -0.32751  -0.32747
  Beta  occ. eigenvalues --   -0.32683  -0.32318  -0.32203  -0.32132  -0.31769
  Beta  occ. eigenvalues --   -0.31515  -0.31074  -0.30663  -0.30427  -0.29995
  Beta  occ. eigenvalues --   -0.29134  -0.28828  -0.28353  -0.28202  -0.28094
  Beta  occ. eigenvalues --   -0.27893  -0.27859  -0.27540  -0.27426  -0.27199
  Beta  occ. eigenvalues --   -0.27176  -0.26871  -0.26676  -0.26522  -0.26236
  Beta  occ. eigenvalues --   -0.26199  -0.25958  -0.25929  -0.25717  -0.25210
  Beta  occ. eigenvalues --   -0.25203  -0.25046  -0.24860  -0.24615  -0.24145
  Beta  occ. eigenvalues --   -0.24104  -0.24062  -0.23999  -0.23924  -0.23871
  Beta  occ. eigenvalues --   -0.23725  -0.23639  -0.23595  -0.23409  -0.23392
  Beta  occ. eigenvalues --   -0.23313  -0.23199  -0.23184  -0.22861  -0.22825
  Beta  occ. eigenvalues --   -0.22430  -0.22245  -0.21677
  Beta virt. eigenvalues --   -0.06180  -0.05757  -0.05075  -0.04418  -0.03633
  Beta virt. eigenvalues --   -0.03026  -0.02599  -0.02313  -0.02249  -0.02207
  Beta virt. eigenvalues --   -0.01957  -0.01828  -0.01810  -0.01530  -0.01422

 Mulliken charges and spin densities:
               1          2
     1  C   -0.016683  -0.000000
     2  C    0.016840   0.000000
     3  C    0.125502  -0.000000
     4  O   -0.226746   0.000000
     5  C    0.061107  -0.000000
     6  C    0.043294   0.000000
     7  N   -0.168540   0.000000
     8  C    0.077161   0.000000
     9  C    0.054843   0.000000
    10  N   -0.164870   0.000000
    11  C    0.069061  -0.000000
    12  C   -0.035514   0.000000
    13  C    0.019923  -0.000000
    14  C    0.131357   0.000000
    15  O   -0.227081  -0.000000
    16  C    0.063735  -0.000000
    17  C   -0.028791  -0.000000
    18  C    0.106669  -0.000000
    19  C    0.046896   0.000000
    20  O   -0.245820  -0.000000
    21  C    0.074642  -0.000000
    22  C    0.079921  -0.000000
    23  N   -0.190252  -0.000000
    24  C    0.076207   0.000000
    25  C    0.080182   0.000000
    26  N   -0.190373  -0.000000
    27  C    0.075800   0.000000
    28  C   -0.030884  -0.000000
    29  C    0.109663   0.000000
    30  C    0.050060  -0.000000
    31  O   -0.245070  -0.000000
    32  C    0.071019  -0.000000
    33  C   -0.031019   0.000000
    34  C    0.110377  -0.000000
    35  C    0.048369   0.000000
    36  O   -0.245860   0.000000
    37  C    0.071589  -0.000000
    38  C    0.080022  -0.000000
    39  N   -0.189631  -0.000000
    40  C    0.076225  -0.000000
    41  C    0.079424  -0.000000
    42  N   -0.190447   0.000000
    43  C    0.077718   0.000000
    44  C   -0.030342  -0.000000
    45  C    0.110374  -0.000000
    46  C    0.046611   0.000000
    47  O   -0.246775   0.000000
    48  C    0.071784  -0.000000
    49  C   -0.038487   0.000000
    50  C    0.019284  -0.000000
    51  C    0.131450  -0.000000
    52  O   -0.226141  -0.000000
    53  C    0.063217  -0.000000
    54  C    0.050315  -0.000000
    55  N   -0.165171   0.000000
    56  C    0.068821  -0.000000
    57  C    0.049563   0.000000
    58  N   -0.165611   0.000000
    59  C    0.065833  -0.000000
    60  C   -0.033968   0.000000
    61  C    0.020094  -0.000000
    62  C    0.129711  -0.000000
    63  O   -0.228689  -0.000000
    64  C    0.062863   0.000000
    65  C   -0.036691  -0.000000
    66  C    0.020027   0.000000
    67  C    0.130504  -0.000000
    68  O   -0.228026  -0.000000
    69  C    0.062739   0.000000
    70  C    0.049121   0.000000
    71  N   -0.165017   0.000000
    72  C    0.065285   0.000000
    73  C    0.049555  -0.000000
    74  N   -0.164369  -0.000000
    75  C    0.067240   0.000000
    76  C   -0.036464  -0.000000
    77  C    0.020229  -0.000000
    78  C    0.129833   0.000000
    79  O   -0.227489   0.000000
    80  C    0.063045   0.000000
    81  C   -0.027686   0.000000
    82  C    0.105421   0.000000
    83  C    0.053470  -0.000000
    84  O   -0.247032   0.000000
    85  C    0.071673  -0.000000
    86  C    0.063425  -0.000000
    87  N   -0.177310  -0.000000
    88  C    0.062076  -0.000000
    89  C    0.066981   0.000000
    90  N   -0.181287   0.000000
    91  C    0.075907  -0.000000
    92  C   -0.035415   0.000000
    93  C    0.022796   0.000000
    94  C    0.121215  -0.000000
    95  O   -0.211548  -0.000000
    96  C    0.062451  -0.000000
    97  C   -0.030529  -0.000000
    98  C    0.108880   0.000000
    99  C    0.049028  -0.000000
   100  O   -0.245543  -0.000000
   101  C    0.073019  -0.000000
   102  C    0.082989  -0.000000
   103  N   -0.189416   0.000000
   104  C    0.072566  -0.000000
   105  C    0.078912   0.000000
   106  N   -0.191635  -0.000000
   107  C    0.083860   0.000000
   108  C   -0.012103   0.000000
   109  C    0.102459  -0.000000
   110  C    0.044544  -0.000000
   111  O   -0.244962  -0.000000
   112  C    0.072513   0.000000
   113  H   -0.019970  -0.000000
   114  H   -0.017588  -0.000000
   115  H    0.045897   0.000000
   116  H    0.049039   0.000000
   117  H    0.042336   0.000000
   118  H   -0.007305  -0.000000
   119  H   -0.009046  -0.000000
   120  H   -0.029049   0.000000
   121  H    0.041350   0.000000
   122  H    0.047748  -0.000000
   123  H    0.049076   0.000000
   124  H   -0.026534   0.000000
   125  H    0.038049   0.000000
   126  H    0.042772   0.000000
   127  H    0.016308  -0.000000
   128  H   -0.004241   0.000000
   129  H   -0.007606  -0.000000
   130  H   -0.022524  -0.000000
   131  H    0.044293   0.000000
   132  H    0.024173   0.000000
   133  H    0.039789   0.000000
   134  H   -0.023440   0.000000
   135  H    0.023792  -0.000000
   136  H    0.042865  -0.000000
   137  H    0.039565   0.000000
   138  H   -0.006662  -0.000000
   139  H   -0.006329   0.000000
   140  H   -0.028602   0.000000
   141  H    0.023570  -0.000000
   142  H    0.042645   0.000000
   143  H    0.039099   0.000000
   144  H   -0.024812  -0.000000
   145  H    0.044439   0.000000
   146  H    0.046100  -0.000000
   147  H    0.050494   0.000000
   148  H   -0.009063  -0.000000
   149  H   -0.014087  -0.000000
   150  H   -0.023938   0.000000
   151  H    0.044742   0.000000
   152  H    0.048274  -0.000000
   153  H    0.048585  -0.000000
   154  H   -0.022749  -0.000000
   155  H    0.048627  -0.000000
   156  H    0.046277   0.000000
   157  H    0.047199  -0.000000
   158  H   -0.014840  -0.000000
   159  H   -0.009249   0.000000
   160  H   -0.024848   0.000000
   161  H    0.048966  -0.000000
   162  H    0.045547  -0.000000
   163  H    0.045920   0.000000
   164  H   -0.023405  -0.000000
   165  H    0.023918   0.000000
   166  H    0.042108   0.000000
   167  H    0.037443   0.000000
   168  H   -0.012777   0.000000
   169  H   -0.014934  -0.000000
   170  H   -0.023186  -0.000000
   171  H    0.053567   0.000000
   172  H    0.048520  -0.000000
   173  H    0.042761   0.000000
   174  H   -0.020451   0.000000
   175  H    0.042738  -0.000000
   176  H    0.021571   0.000000
   177  H    0.038020  -0.000000
   178  H   -0.011774   0.000000
   179  H   -0.004470   0.000000
   180  H   -0.015632   0.000000
   181  H   -0.014174   0.000000
   182  H    0.041089  -0.000000
   183  H    0.021903  -0.000000
   184  H    0.038110   0.000000
 Sum of Mulliken charges =  -0.00000  -0.00000

 Dipole moment (field-independent basis, Debye):
    X=              0.7352    Y=              5.4157    Z=             -2.9682  Tot=              6.2194
 Quadrupole moment (field-independent basis, Debye-Ang):
   XX=           -409.9644   YY=           -593.5657   ZZ=           -618.0757
   XY=            100.7424   XZ=             16.0303   YZ=            -15.1901

 Normal termination of Gaussian 16 at Sat Jul 25 19:06:56 2020.
