 Gaussian 16, Revision A.03,
 Gaussian 16:  EM64L-G16RevA.03 25-Dec-2016

 ---------------------------------------------------------------
 #P uLC-wPBE/cc-pVDZ iop(3/107=0070700000, 3/108=0070700000) opt
 ---------------------------------------------------------------

 ----------------
 H11 C24 S3 N6 F3
 ----------------
 Symbolic Z-matrix:
 Charge =  0 Multiplicity = 1

 SCF Done:  E(ULC-wPBE) =  -2741.84650532     A.U. after   16 cycles
 SCF Done:  E(ULC-wPBE) =  -2741.90072708     A.U. after   14 cycles
 SCF Done:  E(ULC-wPBE) =  -2741.93036733     A.U. after   15 cycles
 SCF Done:  E(ULC-wPBE) =  -2741.93190644     A.U. after   13 cycles
 SCF Done:  E(ULC-wPBE) =  -2741.93217887     A.U. after   12 cycles
 SCF Done:  E(ULC-wPBE) =  -2741.93231076     A.U. after   12 cycles
 SCF Done:  E(ULC-wPBE) =  -2741.93236174     A.U. after   11 cycles
 SCF Done:  E(ULC-wPBE) =  -2741.93239547     A.U. after   11 cycles
 SCF Done:  E(ULC-wPBE) =  -2741.93241538     A.U. after   11 cycles
 SCF Done:  E(ULC-wPBE) =  -2741.93242276     A.U. after   11 cycles
 SCF Done:  E(ULC-wPBE) =  -2741.93242649     A.U. after   10 cycles
 SCF Done:  E(ULC-wPBE) =  -2741.93242722     A.U. after    9 cycles
 SCF Done:  E(ULC-wPBE) =  -2741.93242761     A.U. after    8 cycles
 SCF Done:  E(ULC-wPBE) =  -2741.93242806     A.U. after    8 cycles
 SCF Done:  E(ULC-wPBE) =  -2741.93242826     A.U. after    8 cycles
 SCF Done:  E(ULC-wPBE) =  -2741.93242839     A.U. after    8 cycles
 SCF Done:  E(ULC-wPBE) =  -2741.93242845     A.U. after    7 cycles
 SCF Done:  E(ULC-wPBE) =  -2741.93242854     A.U. after    7 cycles
 Optimization completed.
    -- Stationary point found.

                         Standard orientation:
 ---------------------------------------------------------------------
 Center     Atomic      Atomic             Coordinates (Angstroms)
 Number     Number       Type             X           Y           Z
 ---------------------------------------------------------------------
      1          6           0       10.376389    2.994720   -0.122731
      2          6           0       10.601751    1.635995    0.141112
      3          7           0        9.613409    0.731271    0.225135
      4          6           0        8.362125    1.216914    0.037821
      5          7           0        8.021746    2.507050   -0.222261
      6          6           0        9.038739    3.377322   -0.299206
      7          6           0        7.247248    0.279759    0.116614
      8          6           0        7.215734   -1.091259    0.364533
      9          9           0        8.309787   -1.831096    0.600528
     10          6           0        5.922465   -1.668320    0.360627
     11          6           0        4.929503   -0.727496    0.105978
     12         16           0        5.617524    0.871651   -0.137018
     13          6           0        3.489166   -0.944941    0.026507
     14          6           0        2.539455    0.094592    0.173059
     15          7           0        1.221250   -0.098239    0.100577
     16          6           0        0.808973   -1.376827   -0.111736
     17          7           0        1.613201   -2.458207   -0.267324
     18          6           0        2.926796   -2.224252   -0.204443
     19          6           0       -0.630327   -1.575081   -0.173435
     20          6           0       -1.389762   -2.726923   -0.378528
     21          9           0       -0.857803   -3.942370   -0.577704
     22          6           0       -2.790769   -2.526099   -0.372737
     23          6           0       -3.128818   -1.192815   -0.160028
     24         16           0       -1.694147   -0.197996    0.041624
     25          6           0       -4.463166   -0.607211   -0.091482
     26          6           0       -4.717918    0.770365   -0.292922
     27          7           0       -5.933777    1.320101   -0.231978
     28          6           0       -6.957570    0.469035    0.027308
     29          7           0       -6.847528   -0.870972    0.236863
     30          6           0       -5.616436   -1.381934    0.182859
     31          6           0       -8.305033    1.013660    0.094727
     32          6           0       -8.773528    2.316202   -0.071240
     33          9           0       -7.981561    3.365072   -0.343160
     34          6           0      -10.180572    2.464160    0.069122
     35          6           0      -10.784884    1.254319    0.345830
     36         16           0       -9.653294   -0.057458    0.435478
     37          1           0       11.199967    3.718187   -0.187492
     38          1           0       11.623992    1.249001    0.293075
     39          1           0        8.766959    4.425495   -0.510944
     40          1           0        5.745185   -2.730144    0.567393
     41          1           0        2.870330    1.129955    0.369195
     42          1           0        3.579951   -3.100038   -0.359584
     43          1           0       -3.507949   -3.336211   -0.548645
     44          1           0       -3.887041    1.459741   -0.527686
     45          1           0       -5.530425   -2.463885    0.381729
     46          1           0      -10.700314    3.423809   -0.032643
     47          1           0      -11.851249    1.060135    0.504544
 ---------------------------------------------------------------------

 The electronic state is 1-A.
 Alpha  occ. eigenvalues --  -88.15691 -88.15676 -88.15287 -24.33940 -24.33844
 Alpha  occ. eigenvalues --  -24.33486 -14.05768 -14.05560 -14.05466 -14.05456
 Alpha  occ. eigenvalues --  -14.05203 -14.05112 -10.03786 -10.03707 -10.03257
 Alpha  occ. eigenvalues --  -10.02603 -10.02520 -10.02406 -10.00140 -10.00057
 Alpha  occ. eigenvalues --  -10.00046  -9.99866  -9.99852  -9.99848  -9.99803
 Alpha  occ. eigenvalues --   -9.99723  -9.98456  -9.98377  -9.98358  -9.98196
 Alpha  occ. eigenvalues --   -9.98028  -9.97873  -9.96517  -9.96475  -9.96457
 Alpha  occ. eigenvalues --   -9.95967  -7.75871  -7.75854  -7.75469  -5.77985
 Alpha  occ. eigenvalues --   -5.77967  -5.77571  -5.77547  -5.77530  -5.77130
 Alpha  occ. eigenvalues --   -5.77106  -5.77093  -5.76731  -1.17347  -1.17255
 Alpha  occ. eigenvalues --   -1.16867  -0.95377  -0.95154  -0.94991  -0.86901
 Alpha  occ. eigenvalues --   -0.86572  -0.86154  -0.86031  -0.85771  -0.85694
 Alpha  occ. eigenvalues --   -0.80131  -0.78872  -0.77234  -0.74049  -0.72937
 Alpha  occ. eigenvalues --   -0.72619  -0.71753  -0.71319  -0.69404  -0.66247
 Alpha  occ. eigenvalues --   -0.65222  -0.64594  -0.64215  -0.63809  -0.62782
 Alpha  occ. eigenvalues --   -0.57924  -0.57421  -0.56910  -0.56766  -0.56303
 Alpha  occ. eigenvalues --   -0.56076  -0.54524  -0.54221  -0.53852  -0.51819
 Alpha  occ. eigenvalues --   -0.51531  -0.50785  -0.49138  -0.48414  -0.47511
 Alpha  occ. eigenvalues --   -0.46370  -0.45991  -0.45934  -0.45806  -0.45498
 Alpha  occ. eigenvalues --   -0.45421  -0.44774  -0.44100  -0.43769  -0.43457
 Alpha  occ. eigenvalues --   -0.43389  -0.43201  -0.43117  -0.41872  -0.41383
 Alpha  occ. eigenvalues --   -0.41181  -0.40521  -0.40233  -0.40071  -0.39060
 Alpha  occ. eigenvalues --   -0.38326  -0.37849  -0.37594  -0.37255  -0.37063
 Alpha  occ. eigenvalues --   -0.35601  -0.35503  -0.34985  -0.34102  -0.33671
 Alpha  occ. eigenvalues --   -0.33478  -0.33263  -0.32388  -0.31123  -0.30851
 Alpha  occ. eigenvalues --   -0.30660  -0.30563  -0.27534  -0.27142  -0.26873
 Alpha  occ. eigenvalues --   -0.26251  -0.25628  -0.25271  -0.25201  -0.24427
 Alpha  occ. eigenvalues --   -0.22563
 Alpha virt. eigenvalues --   -0.08273  -0.06113  -0.04530  -0.04334  -0.04178
 Alpha virt. eigenvalues --   -0.03671  -0.01134   0.01054   0.02129   0.02441
 Alpha virt. eigenvalues --    0.02902   0.02977   0.05620   0.06498   0.06782

  Beta  occ. eigenvalues --  -88.15691 -88.15676 -88.15287 -24.33940 -24.33844
  Beta  occ. eigenvalues --  -24.33486 -14.05768 -14.05560 -14.05466 -14.05456
  Beta  occ. eigenvalues --  -14.05203 -14.05112 -10.03786 -10.03707 -10.03257
  Beta  occ. eigenvalues --  -10.02603 -10.02520 -10.02406 -10.00140 -10.00057
  Beta  occ. eigenvalues --  -10.00046  -9.99866  -9.99852  -9.99848  -9.99803
  Beta  occ. eigenvalues --   -9.99723  -9.98456  -9.98377  -9.98358  -9.98196
  Beta  occ. eigenvalues --   -9.98028  -9.97873  -9.96517  -9.96475  -9.96457
  Beta  occ. eigenvalues --   -9.95967  -7.75871  -7.75854  -7.75469  -5.77985
  Beta  occ. eigenvalues --   -5.77967  -5.77571  -5.77547  -5.77530  -5.77130
  Beta  occ. eigenvalues --   -5.77106  -5.77093  -5.76731  -1.17347  -1.17255
  Beta  occ. eigenvalues --   -1.16867  -0.95377  -0.95154  -0.94991  -0.86901
  Beta  occ. eigenvalues --   -0.86572  -0.86154  -0.86031  -0.85771  -0.85694
  Beta  occ. eigenvalues --   -0.80131  -0.78872  -0.77234  -0.74049  -0.72937
  Beta  occ. eigenvalues --   -0.72619  -0.71753  -0.71319  -0.69404  -0.66247
  Beta  occ. eigenvalues --   -0.65222  -0.64594  -0.64215  -0.63809  -0.62782
  Beta  occ. eigenvalues --   -0.57924  -0.57421  -0.56910  -0.56766  -0.56303
  Beta  occ. eigenvalues --   -0.56076  -0.54524  -0.54221  -0.53852  -0.51819
  Beta  occ. eigenvalues --   -0.51531  -0.50785  -0.49138  -0.48414  -0.47511
  Beta  occ. eigenvalues --   -0.46370  -0.45991  -0.45934  -0.45806  -0.45498
  Beta  occ. eigenvalues --   -0.45421  -0.44774  -0.44100  -0.43769  -0.43457
  Beta  occ. eigenvalues --   -0.43389  -0.43201  -0.43117  -0.41872  -0.41383
  Beta  occ. eigenvalues --   -0.41181  -0.40521  -0.40233  -0.40071  -0.39060
  Beta  occ. eigenvalues --   -0.38326  -0.37849  -0.37594  -0.37255  -0.37063
  Beta  occ. eigenvalues --   -0.35601  -0.35503  -0.34985  -0.34102  -0.33671
  Beta  occ. eigenvalues --   -0.33478  -0.33263  -0.32388  -0.31123  -0.30851
  Beta  occ. eigenvalues --   -0.30660  -0.30563  -0.27534  -0.27142  -0.26873
  Beta  occ. eigenvalues --   -0.26251  -0.25628  -0.25271  -0.25201  -0.24427
  Beta  occ. eigenvalues --   -0.22563
  Beta virt. eigenvalues --   -0.08273  -0.06113  -0.04530  -0.04334  -0.04178
  Beta virt. eigenvalues --   -0.03671  -0.01134   0.01054   0.02129   0.02441
  Beta virt. eigenvalues --    0.02902   0.02977   0.05620   0.06498   0.06782

 Mulliken charges and spin densities:
               1          2
     1  C   -0.050646  -0.000000
     2  C    0.112328   0.000000
     3  N   -0.183171   0.000000
     4  C    0.197126  -0.000000
     5  N   -0.204240  -0.000000
     6  C    0.119416   0.000000
     7  C   -0.169526  -0.000000
     8  C    0.131121   0.000000
     9  F   -0.091508  -0.000000
    10  C    0.034864   0.000000
    11  C   -0.150523   0.000000
    12  S    0.190500  -0.000000
    13  C   -0.028091  -0.000000
    14  C    0.124387  -0.000000
    15  N   -0.199072   0.000000
    16  C    0.197731  -0.000000
    17  N   -0.178817   0.000000
    18  C    0.117286   0.000000
    19  C   -0.171398   0.000000
    20  C    0.130710  -0.000000
    21  F   -0.091396   0.000000
    22  C    0.036367   0.000000
    23  C   -0.149858   0.000000
    24  S    0.193392   0.000000
    25  C   -0.029678  -0.000000
    26  C    0.113932  -0.000000
    27  N   -0.178095   0.000000
    28  C    0.209052  -0.000000
    29  N   -0.199831   0.000000
    30  C    0.125154   0.000000
    31  C   -0.182362   0.000000
    32  C    0.113869  -0.000000
    33  F   -0.094232   0.000000
    34  C    0.071083   0.000000
    35  C   -0.116552   0.000000
    36  S    0.198723   0.000000
    37  H   -0.006451   0.000000
    38  H    0.008037  -0.000000
    39  H    0.009606  -0.000000
    40  H   -0.006374   0.000000
    41  H    0.012131   0.000000
    42  H    0.002200  -0.000000
    43  H   -0.006572  -0.000000
    44  H    0.010699   0.000000
    45  H    0.002844   0.000000
    46  H   -0.001671  -0.000000
    47  H    0.027502  -0.000000
 Sum of Mulliken charges =  -0.00000  -0.00000

 Dipole moment (field-independent basis, Debye):
    X=              0.8100    Y=              1.1578    Z=              0.0939  Tot=              1.4161
 Quadrupole moment (field-independent basis, Debye-Ang):
   XX=           -158.6990   YY=           -211.4246   ZZ=           -224.1933
   XY=             19.3963   XZ=             -3.3663   YZ=             -0.7302

 Normal termination of Gaussian 16 at Fri Jul 24 05:29:00 2020.
