 Gaussian 16, Revision A.03,
 Gaussian 16:  EM64L-G16RevA.03 25-Dec-2016

 ---------------------------------------------------------------
 #P uLC-wPBE/cc-pVDZ iop(3/107=0467200000, 3/108=0467200000) opt
 ---------------------------------------------------------------

 -----------------
 H32 C55 S5 O5 F10
 -----------------
 Symbolic Z-matrix:
 Charge =  0 Multiplicity = 1

 SCF Done:  E(ULC-wPBE) =  -5477.70390849     A.U. after   18 cycles
 SCF Done:  E(ULC-wPBE) =  -5477.79765821     A.U. after   15 cycles
 SCF Done:  E(ULC-wPBE) =  -5477.89037954     A.U. after   15 cycles
 SCF Done:  E(ULC-wPBE) =  -5477.91242401     A.U. after   14 cycles
 SCF Done:  E(ULC-wPBE) =  -5477.91688816     A.U. after   14 cycles
 SCF Done:  E(ULC-wPBE) =  -5477.91831364     A.U. after   13 cycles
 SCF Done:  E(ULC-wPBE) =  -5477.91913777     A.U. after   13 cycles
 SCF Done:  E(ULC-wPBE) =  -5477.91938028     A.U. after   12 cycles
 SCF Done:  E(ULC-wPBE) =  -5477.91954831     A.U. after   13 cycles
 SCF Done:  E(ULC-wPBE) =  -5477.91960559     A.U. after   12 cycles
 SCF Done:  E(ULC-wPBE) =  -5477.91968162     A.U. after   11 cycles
 SCF Done:  E(ULC-wPBE) =  -5477.91969164     A.U. after   10 cycles
 SCF Done:  E(ULC-wPBE) =  -5477.91969736     A.U. after   10 cycles
 SCF Done:  E(ULC-wPBE) =  -5477.91970232     A.U. after   11 cycles
 SCF Done:  E(ULC-wPBE) =  -5477.91970592     A.U. after   10 cycles
 SCF Done:  E(ULC-wPBE) =  -5477.91970892     A.U. after   10 cycles
 SCF Done:  E(ULC-wPBE) =  -5477.91971020     A.U. after   10 cycles
 SCF Done:  E(ULC-wPBE) =  -5477.91971085     A.U. after    8 cycles
 SCF Done:  E(ULC-wPBE) =  -5477.91971087     A.U. after    7 cycles
 SCF Done:  E(ULC-wPBE) =  -5477.91971093     A.U. after    6 cycles
 Optimization completed on the basis of negligible forces.
    -- Stationary point found.

                         Standard orientation:
 ---------------------------------------------------------------------
 Center     Atomic      Atomic             Coordinates (Angstroms)
 Number     Number       Type             X           Y           Z
 ---------------------------------------------------------------------
      1          6           0       18.963688   -2.301704    0.781282
      2          6           0       18.093611   -2.013433    1.818959
      3          6           0       16.745142   -1.921261    1.543747
      4          9           0       15.906306   -1.645130    2.545611
      5          6           0       16.212715   -2.100156    0.272570
      6          6           0       17.131046   -2.375579   -0.735051
      7          9           0       16.683178   -2.527246   -1.980258
      8          6           0       18.487419   -2.484936   -0.505670
      9          6           0       14.774693   -2.010907   -0.001105
     10          6           0       14.004432   -2.944747   -0.636844
     11          8           0       14.536949   -4.114155   -1.034463
     12          6           0       13.715641   -4.974785   -1.780841
     13          6           0       12.646742   -2.542751   -0.779311
     14          6           0       12.410593   -1.312395   -0.242052
     15         16           0       13.833382   -0.638801    0.429147
     16          6           0       11.131235   -0.590812   -0.197646
     17          6           0       10.199360   -0.763841   -1.216313
     18          6           0        9.001688   -0.086992   -1.156855
     19          9           0        8.125584   -0.265479   -2.148448
     20          6           0        8.659213    0.779706   -0.125863
     21          6           0        9.615302    0.918176    0.874414
     22          9           0        9.340484    1.703651    1.913154
     23          6           0       10.827602    0.262865    0.857741
     24          6           0        7.387725    1.506748   -0.088110
     25          6           0        7.221919    2.853475    0.083666
     26          8           0        8.288688    3.666039    0.181264
     27          6           0        8.044475    5.018913    0.469222
     28          6           0        5.854668    3.246894    0.109188
     29          6           0        5.007511    2.191134   -0.051780
     30         16           0        5.865158    0.720581   -0.226364
     31          6           0        3.538922    2.226629   -0.088429
     32          6           0        2.847744    3.177741    0.655500
     33          6           0        1.471339    3.209390    0.607080
     34          9           0        0.837550    4.111444    1.353676
     35          6           0        0.714377    2.330933   -0.161153
     36          6           0        1.444512    1.391231   -0.878331
     37          9           0        0.776715    0.515065   -1.631610
     38          6           0        2.820147    1.320128   -0.860764
     39          6           0       -0.748397    2.402606   -0.203713
     40          6           0       -1.504714    3.511240   -0.467676
     41          8           0       -0.918118    4.680181   -0.781081
     42          6           0       -1.753826    5.797948   -0.939282
     43          6           0       -2.903507    3.259606   -0.399497
     44          6           0       -3.182941    1.961239   -0.092082
     45         16           0       -1.753042    1.046103    0.121948
     46          6           0       -4.509980    1.346318    0.050748
     47          6           0       -5.579388    2.102542    0.520143
     48          6           0       -6.818878    1.515094    0.641500
     49          9           0       -7.828182    2.259703    1.099063
     50          6           0       -7.074153    0.186606    0.323023
     51          6           0       -5.980140   -0.530523   -0.149023
     52          9           0       -6.158242   -1.799043   -0.509990
     53          6           0       -4.721164    0.013411   -0.285923
     54          6           0       -8.395599   -0.427358    0.475855
     55          6           0       -8.685541   -1.587039    1.140447
     56          8           0       -7.720803   -2.261519    1.790300
     57          6           0       -8.067844   -3.500587    2.353418
     58          6           0      -10.064057   -1.934602    1.077669
     59          6           0      -10.796827   -1.027096    0.372309
     60         16           0       -9.816512    0.243511   -0.221994
     61          6           0      -12.243428   -1.058163    0.115050
     62          6           0      -12.974049    0.119183   -0.005338
     63          6           0      -14.330797    0.050499   -0.235430
     64          9           0      -15.011098    1.193762   -0.340103
     65          6           0      -15.030272   -1.143670   -0.355944
     66          6           0      -14.259793   -2.295759   -0.240824
     67          9           0      -14.855646   -3.477956   -0.384338
     68          6           0      -12.901638   -2.277471   -0.009523
     69          6           0      -16.476936   -1.199194   -0.585378
     70          6           0      -17.391123   -1.900039    0.151143
     71          8           0      -17.005310   -2.598268    1.235566
     72          6           0      -17.981956   -3.373386    1.880687
     73          6           0      -18.721912   -1.773984   -0.346757
     74          6           0      -18.773576   -0.977397   -1.444455
     75         16           0      -17.246531   -0.374748   -1.884725
     76          1           0       20.030794   -2.381490    0.978278
     77          1           0       18.436368   -1.863878    2.839172
     78          1           0       19.146971   -2.703792   -1.341076
     79          1           0       13.353755   -4.490519   -2.698328
     80          1           0       12.857853   -5.327595   -1.191374
     81          1           0       14.334073   -5.833503   -2.052889
     82          1           0       11.866566   -3.150372   -1.226280
     83          1           0       10.401456   -1.395808   -2.076439
     84          1           0       11.510626    0.408661    1.690898
     85          1           0        7.483589    5.509247   -0.338638
     86          1           0        7.499706    5.136604    1.416088
     87          1           0        9.022793    5.496746    0.560534
     88          1           0        5.508418    4.270923    0.204502
     89          1           0        3.363125    3.880218    1.304395
     90          1           0        3.313285    0.570202   -1.474170
     91          1           0       -2.440700    5.672298   -1.787815
     92          1           0       -2.332706    5.999858   -0.027512
     93          1           0       -1.097787    6.648571   -1.139035
     94          1           0       -3.674168    3.995378   -0.605205
     95          1           0       -5.458851    3.138368    0.824419
     96          1           0       -3.924348   -0.609974   -0.683962
     97          1           0       -8.814493   -3.386875    3.151687
     98          1           0       -8.449242   -4.195438    1.592585
     99          1           0       -7.151380   -3.912192    2.782924
    100          1           0      -10.506023   -2.798241    1.563859
    101          1           0      -12.510491    1.096571    0.102861
    102          1           0      -12.367601   -3.222353    0.037652
    103          1           0      -18.783995   -2.748571    2.298170
    104          1           0      -18.417610   -4.119653    1.201925
    105          1           0      -17.475599   -3.890921    2.699150
    106          1           0      -19.596264   -2.245714    0.089534
    107          1           0      -19.654626   -0.708396   -2.017989
 ---------------------------------------------------------------------

 Alpha  occ. eigenvalues --  -10.25849 -10.25841 -10.25827 -10.25819 -10.25759
 Alpha  occ. eigenvalues --  -10.25736 -10.25568 -10.25550 -10.25497 -10.25449
 Alpha  occ. eigenvalues --  -10.22721 -10.22705 -10.22622 -10.22577 -10.22183
 Alpha  occ. eigenvalues --  -10.21542 -10.21479 -10.21423 -10.21406 -10.21265
 Alpha  occ. eigenvalues --  -10.20617 -10.20605 -10.20509 -10.20507 -10.20122
 Alpha  occ. eigenvalues --  -10.20071 -10.20070 -10.19894 -10.19172 -10.19024
 Alpha  occ. eigenvalues --  -10.19020 -10.18960 -10.18924 -10.18920 -10.18896
 Alpha  occ. eigenvalues --  -10.18889 -10.18721 -10.18659 -10.18421 -10.18196
 Alpha  occ. eigenvalues --  -10.17169 -10.17166 -10.17159 -10.17157 -10.17057
 Alpha  occ. eigenvalues --  -10.17047 -10.17046 -10.17046 -10.16975 -10.16944
 Alpha  occ. eigenvalues --  -10.16938 -10.16933 -10.16832 -10.16781 -10.16535
 Alpha  occ. eigenvalues --   -7.97116  -7.97100  -7.97011  -7.97007  -7.96544
 Alpha  occ. eigenvalues --   -5.98346  -5.98331  -5.98241  -5.98238  -5.97800
 Alpha  occ. eigenvalues --   -5.97784  -5.97767  -5.97695  -5.97691  -5.97362
 Alpha  occ. eigenvalues --   -5.97347  -5.97259  -5.97253  -5.97218  -5.96805
 Alpha  occ. eigenvalues --   -1.39320  -1.39302  -1.39296  -1.39105  -1.39016
 Alpha  occ. eigenvalues --   -1.39016  -1.39009  -1.38988  -1.38831  -1.38771
 Alpha  occ. eigenvalues --   -1.25012  -1.24973  -1.24895  -1.24870  -1.24585
 Alpha  occ. eigenvalues --   -1.09630  -1.09440  -1.09211  -1.09011  -1.07965
 Alpha  occ. eigenvalues --   -1.07184  -1.06728  -1.06201  -1.05708  -1.05460
 Alpha  occ. eigenvalues --   -0.99934  -0.99144  -0.98109  -0.96948  -0.95929
 Alpha  occ. eigenvalues --   -0.93803  -0.93762  -0.93691  -0.93573  -0.93498
 Alpha  occ. eigenvalues --   -0.93030  -0.92834  -0.92533  -0.92399  -0.92163
 Alpha  occ. eigenvalues --   -0.91700  -0.91235  -0.90470  -0.89726  -0.89402
 Alpha  occ. eigenvalues --   -0.86696  -0.86409  -0.85958  -0.85225  -0.84016
 Alpha  occ. eigenvalues --   -0.82509  -0.81118  -0.79761  -0.79720  -0.79591
 Alpha  occ. eigenvalues --   -0.79432  -0.79275  -0.79025  -0.78463  -0.77946
 Alpha  occ. eigenvalues --   -0.73971  -0.73804  -0.73778  -0.73775  -0.73432
 Alpha  occ. eigenvalues --   -0.72402  -0.72153  -0.72112  -0.71690  -0.71147
 Alpha  occ. eigenvalues --   -0.70875  -0.70716  -0.70317  -0.69770  -0.69409
 Alpha  occ. eigenvalues --   -0.69011  -0.68257  -0.68158  -0.68013  -0.67808
 Alpha  occ. eigenvalues --   -0.67619  -0.67285  -0.67065  -0.66942  -0.66907
 Alpha  occ. eigenvalues --   -0.64324  -0.64289  -0.64279  -0.64109  -0.63578
 Alpha  occ. eigenvalues --   -0.63550  -0.63520  -0.63383  -0.63351  -0.63189
 Alpha  occ. eigenvalues --   -0.63047  -0.62881  -0.62741  -0.62681  -0.62584
 Alpha  occ. eigenvalues --   -0.62563  -0.62462  -0.62347  -0.62303  -0.62219
 Alpha  occ. eigenvalues --   -0.61497  -0.61384  -0.61279  -0.61157  -0.61136
 Alpha  occ. eigenvalues --   -0.60316  -0.60223  -0.60109  -0.59976  -0.59877
 Alpha  occ. eigenvalues --   -0.58298  -0.58287  -0.58232  -0.58142  -0.58114
 Alpha  occ. eigenvalues --   -0.58000  -0.57139  -0.56931  -0.56373  -0.55944
 Alpha  occ. eigenvalues --   -0.55762  -0.55396  -0.55156  -0.55062  -0.54970
 Alpha  occ. eigenvalues --   -0.54709  -0.54544  -0.54510  -0.54309  -0.53985
 Alpha  occ. eigenvalues --   -0.53647  -0.53287  -0.53169  -0.53086  -0.52935
 Alpha  occ. eigenvalues --   -0.52641  -0.51726  -0.51553  -0.51423  -0.51280
 Alpha  occ. eigenvalues --   -0.51041  -0.50983  -0.50624  -0.50537  -0.50431
 Alpha  occ. eigenvalues --   -0.50331  -0.50240  -0.50130  -0.49514  -0.49312
 Alpha  occ. eigenvalues --   -0.48957  -0.47773  -0.47637  -0.47517  -0.47319
 Alpha  occ. eigenvalues --   -0.47237  -0.47050  -0.46969  -0.46897  -0.46889
 Alpha  occ. eigenvalues --   -0.46723  -0.46207  -0.46070  -0.46023  -0.45995
 Alpha  occ. eigenvalues --   -0.45820  -0.41438  -0.40830  -0.39999  -0.38959
 Alpha  occ. eigenvalues --   -0.37905  -0.36583  -0.36524  -0.36515  -0.36429
 Alpha  occ. eigenvalues --   -0.36292  -0.36137  -0.35736  -0.35370  -0.35240
 Alpha  occ. eigenvalues --   -0.35067  -0.32935  -0.32336  -0.31368  -0.30316
 Alpha  occ. eigenvalues --   -0.29585
 Alpha virt. eigenvalues --    0.00312   0.01327   0.02695   0.04175   0.06603
 Alpha virt. eigenvalues --    0.07265   0.07738   0.07920   0.08023   0.08163
 Alpha virt. eigenvalues --    0.08529   0.09308   0.10353   0.11201   0.11696

  Beta  occ. eigenvalues --  -88.36211 -88.36197 -88.36106 -88.36102 -88.35627
  Beta  occ. eigenvalues --  -24.54332 -24.54306 -24.54288 -24.54045 -24.54036
  Beta  occ. eigenvalues --  -24.53998 -24.53934 -24.53901 -24.53777 -24.53730
  Beta  occ. eigenvalues --  -19.05135 -19.05082 -19.05007 -19.04986 -19.04736
  Beta  occ. eigenvalues --  -10.25849 -10.25841 -10.25827 -10.25819 -10.25759
  Beta  occ. eigenvalues --  -10.25736 -10.25568 -10.25550 -10.25497 -10.25449
  Beta  occ. eigenvalues --  -10.22721 -10.22705 -10.22622 -10.22577 -10.22183
  Beta  occ. eigenvalues --  -10.21542 -10.21479 -10.21423 -10.21406 -10.21265
  Beta  occ. eigenvalues --  -10.20617 -10.20605 -10.20509 -10.20507 -10.20122
  Beta  occ. eigenvalues --  -10.20071 -10.20070 -10.19894 -10.19172 -10.19024
  Beta  occ. eigenvalues --  -10.19020 -10.18960 -10.18924 -10.18920 -10.18896
  Beta  occ. eigenvalues --  -10.18889 -10.18721 -10.18659 -10.18421 -10.18196
  Beta  occ. eigenvalues --  -10.17169 -10.17166 -10.17159 -10.17157 -10.17057
  Beta  occ. eigenvalues --  -10.17047 -10.17046 -10.17046 -10.16975 -10.16944
  Beta  occ. eigenvalues --  -10.16938 -10.16933 -10.16832 -10.16781 -10.16535
  Beta  occ. eigenvalues --   -7.97116  -7.97100  -7.97011  -7.97007  -7.96544
  Beta  occ. eigenvalues --   -5.98346  -5.98331  -5.98241  -5.98238  -5.97800
  Beta  occ. eigenvalues --   -5.97784  -5.97767  -5.97695  -5.97691  -5.97362
  Beta  occ. eigenvalues --   -5.97347  -5.97259  -5.97253  -5.97218  -5.96805
  Beta  occ. eigenvalues --   -1.39320  -1.39302  -1.39296  -1.39105  -1.39016
  Beta  occ. eigenvalues --   -1.39016  -1.39009  -1.38988  -1.38831  -1.38771
  Beta  occ. eigenvalues --   -1.25012  -1.24973  -1.24895  -1.24870  -1.24585
  Beta  occ. eigenvalues --   -1.09630  -1.09440  -1.09211  -1.09011  -1.07965
  Beta  occ. eigenvalues --   -1.07184  -1.06728  -1.06201  -1.05708  -1.05460
  Beta  occ. eigenvalues --   -0.99934  -0.99144  -0.98109  -0.96948  -0.95929
  Beta  occ. eigenvalues --   -0.93803  -0.93762  -0.93691  -0.93573  -0.93498
  Beta  occ. eigenvalues --   -0.93030  -0.92834  -0.92533  -0.92399  -0.92163
  Beta  occ. eigenvalues --   -0.91700  -0.91235  -0.90470  -0.89726  -0.89402
  Beta  occ. eigenvalues --   -0.86696  -0.86409  -0.85958  -0.85225  -0.84016
  Beta  occ. eigenvalues --   -0.82509  -0.81118  -0.79761  -0.79720  -0.79591
  Beta  occ. eigenvalues --   -0.79432  -0.79275  -0.79025  -0.78463  -0.77946
  Beta  occ. eigenvalues --   -0.73971  -0.73804  -0.73778  -0.73775  -0.73432
  Beta  occ. eigenvalues --   -0.72402  -0.72153  -0.72112  -0.71690  -0.71147
  Beta  occ. eigenvalues --   -0.70875  -0.70716  -0.70317  -0.69770  -0.69409
  Beta  occ. eigenvalues --   -0.69011  -0.68257  -0.68158  -0.68013  -0.67808
  Beta  occ. eigenvalues --   -0.67619  -0.67285  -0.67065  -0.66942  -0.66907
  Beta  occ. eigenvalues --   -0.64324  -0.64289  -0.64279  -0.64109  -0.63578
  Beta  occ. eigenvalues --   -0.63550  -0.63520  -0.63383  -0.63351  -0.63189
  Beta  occ. eigenvalues --   -0.63047  -0.62881  -0.62741  -0.62681  -0.62584
  Beta  occ. eigenvalues --   -0.62563  -0.62462  -0.62347  -0.62303  -0.62219
  Beta  occ. eigenvalues --   -0.61497  -0.61384  -0.61279  -0.61157  -0.61136
  Beta  occ. eigenvalues --   -0.60316  -0.60223  -0.60109  -0.59976  -0.59877
  Beta  occ. eigenvalues --   -0.58298  -0.58287  -0.58232  -0.58142  -0.58114
  Beta  occ. eigenvalues --   -0.58000  -0.57139  -0.56931  -0.56373  -0.55944
  Beta  occ. eigenvalues --   -0.55762  -0.55396  -0.55156  -0.55062  -0.54970
  Beta  occ. eigenvalues --   -0.54709  -0.54544  -0.54510  -0.54309  -0.53985
  Beta  occ. eigenvalues --   -0.53647  -0.53287  -0.53169  -0.53086  -0.52935
  Beta  occ. eigenvalues --   -0.52641  -0.51726  -0.51553  -0.51423  -0.51280
  Beta  occ. eigenvalues --   -0.51041  -0.50983  -0.50624  -0.50537  -0.50431
  Beta  occ. eigenvalues --   -0.50331  -0.50240  -0.50130  -0.49514  -0.49312
  Beta  occ. eigenvalues --   -0.48957  -0.47773  -0.47637  -0.47517  -0.47319
  Beta  occ. eigenvalues --   -0.47237  -0.47050  -0.46969  -0.46897  -0.46889
  Beta  occ. eigenvalues --   -0.46723  -0.46207  -0.46070  -0.46023  -0.45995
  Beta  occ. eigenvalues --   -0.45820  -0.41438  -0.40830  -0.39999  -0.38959
  Beta  occ. eigenvalues --   -0.37905  -0.36583  -0.36524  -0.36515  -0.36429
  Beta  occ. eigenvalues --   -0.36292  -0.36137  -0.35736  -0.35370  -0.35240
  Beta  occ. eigenvalues --   -0.35067  -0.32935  -0.32336  -0.31368  -0.30316
  Beta  occ. eigenvalues --   -0.29585
  Beta virt. eigenvalues --    0.00312   0.01327   0.02695   0.04175   0.06603
  Beta virt. eigenvalues --    0.07265   0.07738   0.07920   0.08023   0.08163
  Beta virt. eigenvalues --    0.08529   0.09308   0.10353   0.11201   0.11696

 Mulliken charges and spin densities:
               1          2
     1  C    0.017013  -0.000000
     2  C   -0.025352  -0.000000
     3  C    0.136599   0.000000
     4  F   -0.123343  -0.000000
     5  C   -0.110145  -0.000000
     6  C    0.140921   0.000000
     7  F   -0.119765   0.000000
     8  C   -0.026444   0.000000
     9  C   -0.204260  -0.000000
    10  C    0.199311   0.000000
    11  O   -0.254068  -0.000000
    12  C    0.030975  -0.000000
    13  C   -0.027015  -0.000000
    14  C   -0.157811  -0.000000
    15  S    0.204896   0.000000
    16  C    0.052649  -0.000000
    17  C   -0.030757   0.000000
    18  C    0.148070  -0.000000
    19  F   -0.121512  -0.000000
    20  C   -0.104581   0.000000
    21  C    0.148120  -0.000000
    22  F   -0.116352   0.000000
    23  C   -0.024640   0.000000
    24  C   -0.207544  -0.000000
    25  C    0.197541   0.000000
    26  O   -0.253611   0.000000
    27  C    0.030852   0.000000
    28  C   -0.025818   0.000000
    29  C   -0.157356  -0.000000
    30  S    0.204286  -0.000000
    31  C    0.052275   0.000000
    32  C   -0.031502   0.000000
    33  C    0.152317   0.000000
    34  F   -0.117715  -0.000000
    35  C   -0.104083  -0.000000
    36  C    0.143926   0.000000
    37  F   -0.119862  -0.000000
    38  C   -0.023815  -0.000000
    39  C   -0.207877  -0.000000
    40  C    0.196921   0.000000
    41  O   -0.254546  -0.000000
    42  C    0.030950  -0.000000
    43  C   -0.026012   0.000000
    44  C   -0.157473  -0.000000
    45  S    0.206477  -0.000000
    46  C    0.051671   0.000000
    47  C   -0.030564  -0.000000
    48  C    0.147962  -0.000000
    49  F   -0.121364   0.000000
    50  C   -0.103860   0.000000
    51  C    0.148054  -0.000000
    52  F   -0.116065   0.000000
    53  C   -0.024345  -0.000000
    54  C   -0.208070  -0.000000
    55  C    0.197355  -0.000000
    56  O   -0.253822  -0.000000
    57  C    0.030914  -0.000000
    58  C   -0.025866   0.000000
    59  C   -0.156450  -0.000000
    60  S    0.203698  -0.000000
    61  C    0.051579   0.000000
    62  C   -0.025541   0.000000
    63  C    0.144964  -0.000000
    64  F   -0.119993   0.000000
    65  C   -0.098918  -0.000000
    66  C    0.153671   0.000000
    67  F   -0.118413  -0.000000
    68  C   -0.032885  -0.000000
    69  C   -0.215918   0.000000
    70  C    0.179610  -0.000000
    71  O   -0.254850  -0.000000
    72  C    0.030448   0.000000
    73  C   -0.019275   0.000000
    74  C   -0.141535  -0.000000
    75  S    0.191735   0.000000
    76  H    0.029478  -0.000000
    77  H    0.031225   0.000000
    78  H    0.030565   0.000000
    79  H    0.053965  -0.000000
    80  H    0.054321   0.000000
    81  H    0.069530   0.000000
    82  H    0.023649  -0.000000
    83  H    0.022838   0.000000
    84  H    0.033536  -0.000000
    85  H    0.054299  -0.000000
    86  H    0.054173  -0.000000
    87  H    0.070578  -0.000000
    88  H    0.023904  -0.000000
    89  H    0.022310   0.000000
    90  H    0.034076  -0.000000
    91  H    0.055067   0.000000
    92  H    0.054331  -0.000000
    93  H    0.069239   0.000000
    94  H    0.023975   0.000000
    95  H    0.022693  -0.000000
    96  H    0.033611   0.000000
    97  H    0.054280   0.000000
    98  H    0.054203   0.000000
    99  H    0.070442  -0.000000
   100  H    0.023764   0.000000
   101  H    0.033234  -0.000000
   102  H    0.021462   0.000000
   103  H    0.052673   0.000000
   104  H    0.054070  -0.000000
   105  H    0.067461  -0.000000
   106  H    0.024076  -0.000000
   107  H    0.052210   0.000000
 Sum of Mulliken charges =  -0.00000  -0.00000

 Dipole moment (field-independent basis, Debye):
    X=             -0.3564    Y=             -0.7792    Z=              1.0415  Tot=              1.3487
 Quadrupole moment (field-independent basis, Debye-Ang):
   XX=           -336.8633   YY=           -389.0865   ZZ=           -450.4765
   XY=             22.5053   XZ=            -26.8514   YZ=             -6.2572

 Normal termination of Gaussian 16 at Sat Jul 25 20:19:24 2020.
