 Gaussian 16, Revision A.03,
 Gaussian 16:  EM64L-G16RevA.03 25-Dec-2016

 ---------------------------------------------------------------
 #P uLC-wPBE/cc-pVDZ iop(3/107=0299000000, 3/108=0299000000) opt
 ---------------------------------------------------------------

 ----------------
 H37 C55 S5 O5 F5
 ----------------
 Symbolic Z-matrix:
 Charge =  0 Multiplicity = 1

 SCF Done:  E(ULC-wPBE) =  -4981.45109688     A.U. after   17 cycles
 SCF Done:  E(ULC-wPBE) =  -4981.52929374     A.U. after   14 cycles
 SCF Done:  E(ULC-wPBE) =  -4981.58567370     A.U. after   16 cycles
 SCF Done:  E(ULC-wPBE) =  -4981.60114149     A.U. after   13 cycles
 SCF Done:  E(ULC-wPBE) =  -4981.60615707     A.U. after   13 cycles
 SCF Done:  E(ULC-wPBE) =  -4981.60881720     A.U. after   14 cycles
 SCF Done:  E(ULC-wPBE) =  -4981.61110007     A.U. after   14 cycles
 SCF Done:  E(ULC-wPBE) =  -4981.61270640     A.U. after   15 cycles
 SCF Done:  E(ULC-wPBE) =  -4981.61318550     A.U. after   14 cycles
 SCF Done:  E(ULC-wPBE) =  -4981.61334358     A.U. after   14 cycles
 SCF Done:  E(ULC-wPBE) =  -4981.61348019     A.U. after   11 cycles
 SCF Done:  E(ULC-wPBE) =  -4981.61348347     A.U. after   10 cycles
 SCF Done:  E(ULC-wPBE) =  -4981.61348534     A.U. after    8 cycles
 SCF Done:  E(ULC-wPBE) =  -4981.61348618     A.U. after    8 cycles
 SCF Done:  E(ULC-wPBE) =  -4981.61348664     A.U. after    7 cycles
 SCF Done:  E(ULC-wPBE) =  -4981.61348703     A.U. after    8 cycles
 SCF Done:  E(ULC-wPBE) =  -4981.61348740     A.U. after    7 cycles
 SCF Done:  E(ULC-wPBE) =  -4981.61348742     A.U. after    7 cycles
 SCF Done:  E(ULC-wPBE) =  -4981.61348746     A.U. after    6 cycles
 SCF Done:  E(ULC-wPBE) =  -4981.61348745     A.U. after    5 cycles
 Optimization completed on the basis of negligible forces.
    -- Stationary point found.

                         Standard orientation:
 ---------------------------------------------------------------------
 Center     Atomic      Atomic             Coordinates (Angstroms)
 Number     Number       Type             X           Y           Z
 ---------------------------------------------------------------------
      1          6           0      -19.311661   -2.458502    0.205469
      2          6           0      -18.301206   -3.188595   -0.419839
      3          6           0      -17.031094   -2.635303   -0.560867
      4          6           0      -16.732932   -1.352133   -0.079216
      5          6           0      -17.767016   -0.656409    0.557536
      6          9           0      -17.519229    0.560925    1.073939
      7          6           0      -19.043909   -1.183361    0.698044
      8          6           0      -15.387652   -0.767276   -0.211736
      9          6           0      -15.037239    0.473892   -0.702561
     10          8           0      -15.992352    1.322686   -1.155511
     11          6           0      -15.562946    2.607715   -1.561590
     12          6           0      -13.626647    0.696967   -0.710945
     13          6           0      -12.915101   -0.379409   -0.236550
     14         16           0      -13.972526   -1.660289    0.236768
     15          6           0      -11.453691   -0.507016   -0.100667
     16          6           0      -10.805232   -1.744880   -0.207024
     17          6           0       -9.425054   -1.847023   -0.084379
     18          6           0       -8.610876   -0.723286    0.147616
     19          6           0       -9.290850    0.499288    0.240969
     20          9           0       -8.582569    1.632121    0.458351
     21          6           0      -10.664462    0.625527    0.129390
     22          6           0       -7.149971   -0.832195    0.281646
     23          6           0       -6.401445   -1.961640    0.581945
     24          8           0       -7.004568   -3.151639    0.848294
     25          6           0       -6.167371   -4.219637    1.253997
     26          6           0       -4.995278   -1.732551    0.586735
     27          6           0       -4.670963   -0.431319    0.286525
     28         16           0       -6.082496    0.512940    0.002902
     29          6           0       -3.326563    0.165794    0.206640
     30          6           0       -3.095458    1.514416    0.510189
     31          6           0       -1.819739    2.059635    0.435382
     32          6           0       -0.701247    1.294522    0.056885
     33          6           0       -0.966983   -0.051510   -0.232201
     34          9           0        0.053929   -0.860644   -0.599559
     35          6           0       -2.228938   -0.616062   -0.170881
     36          6           0        0.648397    1.873481   -0.027323
     37          6           0        0.998661    3.212065   -0.135503
     38          8           0        0.047224    4.179825   -0.230273
     39          6           0        0.497539    5.504632   -0.448950
     40          6           0        2.405463    3.437612   -0.145121
     41          6           0        3.127631    2.273240   -0.040109
     42         16           0        2.089781    0.903529    0.065830
     43          6           0        4.593349    2.124938   -0.023892
     44          6           0        5.411532    3.129531    0.511425
     45          6           0        6.794741    3.002006    0.518749
     46          6           0        7.442691    1.866280   -0.001626
     47          6           0        6.594219    0.875799   -0.515724
     48          9           0        7.135340   -0.253931   -1.026804
     49          6           0        5.214294    0.981993   -0.539594
     50          6           0        8.907767    1.734365    0.001390
     51          6           0        9.855990    2.740735    0.120914
     52          8           0        9.485086    4.047423    0.203835
     53          6           0       10.524077    5.009824    0.215996
     54          6           0       11.198553    2.264430    0.135049
     55          6           0       11.274640    0.896241    0.030560
     56         16           0        9.708129    0.192348   -0.089126
     57          6           0       12.488557    0.061585    0.004535
     58          6           0       12.536815   -1.153681   -0.691765
     59          6           0       13.692424   -1.925109   -0.710762
     60          6           0       14.864422   -1.530533   -0.040923
     61          6           0       14.784046   -0.307259    0.638582
     62          9           0       15.870161    0.149023    1.304599
     63          6           0       13.643571    0.475888    0.677534
     64          6           0       16.086141   -2.351684   -0.057070
     65          6           0       16.194558   -3.709792   -0.318692
     66          8           0       15.090608   -4.467131   -0.562657
     67          6           0       15.287871   -5.862664   -0.699723
     68          6           0       17.539823   -4.190449   -0.301285
     69          6           0       18.433026   -3.190120   -0.034126
     70         16           0       17.669652   -1.681832    0.212714
     71          1           0      -20.315159   -2.882524    0.314749
     72          1           0      -18.504609   -4.191248   -0.808684
     73          1           0      -16.239694   -3.198760   -1.066876
     74          1           0      -19.806629   -0.584972    1.204828
     75          1           0      -15.056917    3.147633   -0.739051
     76          1           0      -16.471206    3.158753   -1.846216
     77          1           0      -14.885704    2.556599   -2.435461
     78          1           0      -13.144615    1.600620   -1.088160
     79          1           0      -11.390022   -2.647860   -0.411002
     80          1           0       -8.948858   -2.824180   -0.175610
     81          1           0      -11.103749    1.619585    0.249726
     82          1           0       -5.453462   -4.503660    0.458142
     83          1           0       -6.833921   -5.070347    1.457673
     84          1           0       -5.608705   -3.969650    2.174999
     85          1           0       -4.246100   -2.485823    0.834767
     86          1           0       -3.927595    2.148545    0.832987
     87          1           0       -1.670807    3.111687    0.682013
     88          1           0       -2.337811   -1.668500   -0.446916
     89          1           0       -0.406667    6.124838   -0.534004
     90          1           0        1.080654    5.585439   -1.385083
     91          1           0        1.108846    5.872670    0.396403
     92          1           0        2.875706    4.415193   -0.260138
     93          1           0        4.955575    4.019487    0.955931
     94          1           0        7.405584    3.798572    0.945830
     95          1           0        4.640265    0.164560   -0.986304
     96          1           0       11.145041    4.948019   -0.696953
     97          1           0       11.170869    4.901123    1.106803
     98          1           0       10.030867    5.992268    0.249262
     99          1           0       12.081748    2.902847    0.185677
    100          1           0       11.658720   -1.495373   -1.249428
    101          1           0       13.701328   -2.865081   -1.264455
    102          1           0       13.670605    1.399294    1.262595
    103          1           0       14.288802   -6.300683   -0.839698
    104          1           0       15.912696   -6.102472   -1.580635
    105          1           0       15.749610   -6.298032    0.206007
    106          1           0       17.834326   -5.226139   -0.476566
    107          1           0       19.518034   -3.274349    0.044859
 ---------------------------------------------------------------------

 The electronic state is 1-A.
 Alpha  occ. eigenvalues --  -88.26494 -88.26485 -88.26461 -88.26383 -88.26348
 Alpha  occ. eigenvalues --  -24.45205 -24.45190 -24.45172 -24.45106 -24.44025
 Alpha  occ. eigenvalues --  -18.97126 -18.97045 -18.96979 -18.96951 -18.95904
 Alpha  occ. eigenvalues --  -10.15053 -10.15041 -10.15018 -10.14929 -10.14475
 Alpha  occ. eigenvalues --  -10.13175 -10.13127 -10.13038 -10.13037 -10.12793
 Alpha  occ. eigenvalues --  -10.12704 -10.12677 -10.12596 -10.12409 -10.11861
 Alpha  occ. eigenvalues --  -10.10572 -10.10543 -10.10465 -10.10362 -10.09752
 Alpha  occ. eigenvalues --  -10.09722 -10.09688 -10.09602 -10.09599 -10.09373
 Alpha  occ. eigenvalues --  -10.09353 -10.09352 -10.09324 -10.09316 -10.09286
 Alpha  occ. eigenvalues --  -10.09216 -10.09193 -10.08892 -10.08620 -10.07639
 Alpha  occ. eigenvalues --  -10.07576 -10.07565 -10.07506 -10.07462 -10.07459
 Alpha  occ. eigenvalues --  -10.07452 -10.07428 -10.07376 -10.07363 -10.07342
 Alpha  occ. eigenvalues --  -10.07313 -10.07265 -10.07249 -10.07245 -10.07151
 Alpha  occ. eigenvalues --  -10.07107 -10.07095 -10.07071 -10.07027 -10.06828
 Alpha  occ. eigenvalues --   -7.87014  -7.86996  -7.86975  -7.86896  -7.86875
 Alpha  occ. eigenvalues --   -5.88858  -5.88848  -5.88827  -5.88747  -5.88715
 Alpha  occ. eigenvalues --   -5.88343  -5.88335  -5.88315  -5.88235  -5.88224
 Alpha  occ. eigenvalues --   -5.87953  -5.87918  -5.87896  -5.87817  -5.87797
 Alpha  occ. eigenvalues --   -1.29322  -1.29301  -1.29300  -1.29213  -1.28325
 Alpha  occ. eigenvalues --   -1.16104  -1.16036  -1.15965  -1.15939  -1.15125
 Alpha  occ. eigenvalues --   -0.99742  -0.99578  -0.99393  -0.99172  -0.98845
 Alpha  occ. eigenvalues --   -0.97148  -0.96780  -0.96337  -0.95923  -0.95558
 Alpha  occ. eigenvalues --   -0.90798  -0.90083  -0.89130  -0.88070  -0.86926
 Alpha  occ. eigenvalues --   -0.85862  -0.85569  -0.85356  -0.85184  -0.85067
 Alpha  occ. eigenvalues --   -0.85017  -0.84614  -0.84563  -0.84533  -0.84139
 Alpha  occ. eigenvalues --   -0.83737  -0.83229  -0.82445  -0.81952  -0.81522
 Alpha  occ. eigenvalues --   -0.79590  -0.79247  -0.78640  -0.77760  -0.76866
 Alpha  occ. eigenvalues --   -0.74671  -0.73517  -0.72891  -0.72493  -0.72035
 Alpha  occ. eigenvalues --   -0.71890  -0.71529  -0.71037  -0.70742  -0.70022
 Alpha  occ. eigenvalues --   -0.67726  -0.67518  -0.67248  -0.66884  -0.66323
 Alpha  occ. eigenvalues --   -0.65769  -0.65478  -0.65379  -0.65247  -0.65109
 Alpha  occ. eigenvalues --   -0.64385  -0.64226  -0.64069  -0.63572  -0.63270
 Alpha  occ. eigenvalues --   -0.61658  -0.61040  -0.60511  -0.60182  -0.59670
 Alpha  occ. eigenvalues --   -0.59305  -0.59224  -0.58771  -0.58500  -0.58267
 Alpha  occ. eigenvalues --   -0.57564  -0.57540  -0.57505  -0.57390  -0.57382
 Alpha  occ. eigenvalues --   -0.57176  -0.57078  -0.56980  -0.56761  -0.56321
 Alpha  occ. eigenvalues --   -0.56236  -0.56052  -0.56040  -0.56014  -0.55917
 Alpha  occ. eigenvalues --   -0.55890  -0.55468  -0.55218  -0.54583  -0.53944
 Alpha  occ. eigenvalues --   -0.53503  -0.52943  -0.52795  -0.52760  -0.52663
 Alpha  occ. eigenvalues --   -0.52548  -0.52231  -0.51987  -0.51929  -0.51639
 Alpha  occ. eigenvalues --   -0.50768  -0.50694  -0.50567  -0.50478  -0.50185
 Alpha  occ. eigenvalues --   -0.50166  -0.49791  -0.49585  -0.49509  -0.49485
 Alpha  occ. eigenvalues --   -0.49381  -0.49367  -0.49152  -0.48771  -0.48681
 Alpha  occ. eigenvalues --   -0.48036  -0.47406  -0.47288  -0.46936  -0.46551
 Alpha  occ. eigenvalues --   -0.46351  -0.46216  -0.45959  -0.45842  -0.45640
 Alpha  occ. eigenvalues --   -0.45520  -0.45419  -0.45388  -0.44972  -0.44628
 Alpha  occ. eigenvalues --   -0.43372  -0.42937  -0.42903  -0.42851  -0.42683
 Alpha  occ. eigenvalues --   -0.42583  -0.42521  -0.42467  -0.42363  -0.42310
 Alpha  occ. eigenvalues --   -0.42216  -0.42050  -0.41919  -0.41650  -0.41475
 Alpha  occ. eigenvalues --   -0.41308  -0.39475  -0.38722  -0.37613  -0.36425
 Alpha  occ. eigenvalues --   -0.35469  -0.34184  -0.34158  -0.34094  -0.34020
 Alpha  occ. eigenvalues --   -0.33694  -0.33209  -0.32769  -0.32561  -0.32486
 Alpha  occ. eigenvalues --   -0.32255  -0.30314  -0.29492  -0.28208  -0.26831
 Alpha  occ. eigenvalues --   -0.25803
 Alpha virt. eigenvalues --   -0.00852   0.00353   0.01988   0.03758   0.05506
 Alpha virt. eigenvalues --    0.06343   0.06501   0.06581   0.06653   0.06812
 Alpha virt. eigenvalues --    0.07443   0.08346   0.09709   0.10945   0.11737

  Beta  occ. eigenvalues --  -88.26494 -88.26485 -88.26461 -88.26383 -88.26348
  Beta  occ. eigenvalues --  -24.45205 -24.45190 -24.45172 -24.45106 -24.44025
  Beta  occ. eigenvalues --  -18.97126 -18.97045 -18.96979 -18.96951 -18.95904
  Beta  occ. eigenvalues --  -10.15053 -10.15041 -10.15018 -10.14929 -10.14475
  Beta  occ. eigenvalues --  -10.13175 -10.13127 -10.13038 -10.13037 -10.12793
  Beta  occ. eigenvalues --  -10.12704 -10.12677 -10.12596 -10.12409 -10.11861
  Beta  occ. eigenvalues --  -10.10572 -10.10543 -10.10465 -10.10362 -10.09752
  Beta  occ. eigenvalues --  -10.09722 -10.09688 -10.09602 -10.09599 -10.09373
  Beta  occ. eigenvalues --  -10.09353 -10.09352 -10.09324 -10.09316 -10.09286
  Beta  occ. eigenvalues --  -10.09216 -10.09193 -10.08892 -10.08620 -10.07639
  Beta  occ. eigenvalues --  -10.07576 -10.07565 -10.07506 -10.07462 -10.07459
  Beta  occ. eigenvalues --  -10.07452 -10.07428 -10.07376 -10.07363 -10.07342
  Beta  occ. eigenvalues --  -10.07313 -10.07265 -10.07249 -10.07245 -10.07151
  Beta  occ. eigenvalues --  -10.07107 -10.07095 -10.07071 -10.07027 -10.06828
  Beta  occ. eigenvalues --   -7.87014  -7.86996  -7.86975  -7.86896  -7.86875
  Beta  occ. eigenvalues --   -5.88858  -5.88848  -5.88827  -5.88747  -5.88715
  Beta  occ. eigenvalues --   -5.88343  -5.88335  -5.88315  -5.88235  -5.88224
  Beta  occ. eigenvalues --   -5.87953  -5.87918  -5.87896  -5.87817  -5.87797
  Beta  occ. eigenvalues --   -1.29322  -1.29301  -1.29300  -1.29213  -1.28325
  Beta  occ. eigenvalues --   -1.16104  -1.16036  -1.15965  -1.15939  -1.15125
  Beta  occ. eigenvalues --   -0.99742  -0.99578  -0.99393  -0.99172  -0.98845
  Beta  occ. eigenvalues --   -0.97148  -0.96780  -0.96337  -0.95923  -0.95558
  Beta  occ. eigenvalues --   -0.90798  -0.90083  -0.89130  -0.88070  -0.86926
  Beta  occ. eigenvalues --   -0.85862  -0.85569  -0.85356  -0.85184  -0.85067
  Beta  occ. eigenvalues --   -0.85017  -0.84614  -0.84563  -0.84533  -0.84139
  Beta  occ. eigenvalues --   -0.83737  -0.83229  -0.82445  -0.81952  -0.81522
  Beta  occ. eigenvalues --   -0.79590  -0.79247  -0.78640  -0.77760  -0.76866
  Beta  occ. eigenvalues --   -0.74671  -0.73517  -0.72891  -0.72493  -0.72035
  Beta  occ. eigenvalues --   -0.71890  -0.71529  -0.71037  -0.70742  -0.70022
  Beta  occ. eigenvalues --   -0.67726  -0.67518  -0.67248  -0.66884  -0.66323
  Beta  occ. eigenvalues --   -0.65769  -0.65478  -0.65379  -0.65247  -0.65109
  Beta  occ. eigenvalues --   -0.64385  -0.64226  -0.64069  -0.63572  -0.63270
  Beta  occ. eigenvalues --   -0.61658  -0.61040  -0.60511  -0.60182  -0.59670
  Beta  occ. eigenvalues --   -0.59305  -0.59224  -0.58771  -0.58500  -0.58267
  Beta  occ. eigenvalues --   -0.57564  -0.57540  -0.57505  -0.57390  -0.57382
  Beta  occ. eigenvalues --   -0.57176  -0.57078  -0.56980  -0.56761  -0.56321
  Beta  occ. eigenvalues --   -0.56236  -0.56052  -0.56040  -0.56014  -0.55917
  Beta  occ. eigenvalues --   -0.55890  -0.55468  -0.55218  -0.54583  -0.53944
  Beta  occ. eigenvalues --   -0.53503  -0.52943  -0.52795  -0.52760  -0.52663
  Beta  occ. eigenvalues --   -0.52548  -0.52231  -0.51987  -0.51929  -0.51639
  Beta  occ. eigenvalues --   -0.50768  -0.50694  -0.50567  -0.50478  -0.50185
  Beta  occ. eigenvalues --   -0.50166  -0.49791  -0.49585  -0.49509  -0.49485
  Beta  occ. eigenvalues --   -0.49381  -0.49367  -0.49152  -0.48771  -0.48681
  Beta  occ. eigenvalues --   -0.48036  -0.47406  -0.47288  -0.46936  -0.46551
  Beta  occ. eigenvalues --   -0.46351  -0.46216  -0.45959  -0.45842  -0.45640
  Beta  occ. eigenvalues --   -0.45520  -0.45419  -0.45388  -0.44972  -0.44628
  Beta  occ. eigenvalues --   -0.43372  -0.42937  -0.42903  -0.42851  -0.42683
  Beta  occ. eigenvalues --   -0.42583  -0.42521  -0.42467  -0.42363  -0.42310
  Beta  occ. eigenvalues --   -0.42216  -0.42050  -0.41919  -0.41650  -0.41475
  Beta  occ. eigenvalues --   -0.41308  -0.39475  -0.38722  -0.37613  -0.36425
  Beta  occ. eigenvalues --   -0.35469  -0.34184  -0.34158  -0.34094  -0.34020
  Beta  occ. eigenvalues --   -0.33694  -0.33209  -0.32769  -0.32561  -0.32486
  Beta  occ. eigenvalues --   -0.32255  -0.30314  -0.29492  -0.28208  -0.26831
  Beta  occ. eigenvalues --   -0.25803
  Beta virt. eigenvalues --   -0.00852   0.00353   0.01988   0.03758   0.05506
  Beta virt. eigenvalues --    0.06343   0.06501   0.06581   0.06653   0.06812
  Beta virt. eigenvalues --    0.07443   0.08346   0.09709   0.10945   0.11737

 Mulliken charges and spin densities:
               1          2
     1  C    0.021307   0.000000
     2  C    0.017881  -0.000000
     3  C    0.021102  -0.000000
     4  C   -0.023329   0.000000
     5  C    0.107492  -0.000000
     6  F   -0.119097   0.000000
     7  C    0.003785   0.000000
     8  C   -0.213755   0.000000
     9  C    0.179567  -0.000000
    10  O   -0.237469   0.000000
    11  C    0.053912  -0.000000
    12  C   -0.011260  -0.000000
    13  C   -0.151833   0.000000
    14  S    0.174531  -0.000000
    15  C    0.066765  -0.000000
    16  C    0.010720   0.000000
    17  C    0.008695   0.000000
    18  C    0.019711   0.000000
    19  C    0.086498  -0.000000
    20  F   -0.130177  -0.000000
    21  C    0.000417   0.000000
    22  C   -0.181937  -0.000000
    23  C    0.152021  -0.000000
    24  O   -0.257543   0.000000
    25  C    0.057661  -0.000000
    26  C    0.001424   0.000000
    27  C   -0.153537  -0.000000
    28  S    0.181482   0.000000
    29  C    0.064023   0.000000
    30  C    0.010605  -0.000000
    31  C    0.008635   0.000000
    32  C    0.020699  -0.000000
    33  C    0.086166   0.000000
    34  F   -0.129739   0.000000
    35  C    0.000692   0.000000
    36  C   -0.182204   0.000000
    37  C    0.151415  -0.000000
    38  O   -0.257321   0.000000
    39  C    0.057832  -0.000000
    40  C    0.001725   0.000000
    41  C   -0.152314  -0.000000
    42  S    0.182259   0.000000
    43  C    0.061914   0.000000
    44  C    0.008263  -0.000000
    45  C    0.010566   0.000000
    46  C    0.021263  -0.000000
    47  C    0.082696   0.000000
    48  F   -0.128369  -0.000000
    49  C    0.006362  -0.000000
    50  C   -0.182624  -0.000000
    51  C    0.151257   0.000000
    52  O   -0.258263  -0.000000
    53  C    0.057882  -0.000000
    54  C    0.001243  -0.000000
    55  C   -0.153127  -0.000000
    56  S    0.183871   0.000000
    57  C    0.063247   0.000000
    58  C    0.009352  -0.000000
    59  C    0.011130   0.000000
    60  C    0.022959  -0.000000
    61  C    0.088988   0.000000
    62  F   -0.130165   0.000000
    63  C   -0.001183   0.000000
    64  C   -0.193921  -0.000000
    65  C    0.137337   0.000000
    66  O   -0.255313   0.000000
    67  C    0.055161  -0.000000
    68  C    0.015423  -0.000000
    69  C   -0.128084   0.000000
    70  S    0.180761  -0.000000
    71  H   -0.001621  -0.000000
    72  H   -0.006105  -0.000000
    73  H   -0.008127  -0.000000
    74  H    0.005670  -0.000000
    75  H    0.044523  -0.000000
    76  H    0.055217  -0.000000
    77  H    0.044379   0.000000
    78  H   -0.001142  -0.000000
    79  H   -0.010413   0.000000
    80  H   -0.002522  -0.000000
    81  H   -0.003410   0.000000
    82  H    0.047012   0.000000
    83  H    0.056010  -0.000000
    84  H    0.050232  -0.000000
    85  H   -0.001937  -0.000000
    86  H   -0.006243   0.000000
    87  H   -0.002073   0.000000
    88  H   -0.004089  -0.000000
    89  H    0.056300   0.000000
    90  H    0.049874   0.000000
    91  H    0.046470   0.000000
    92  H   -0.002616   0.000000
    93  H   -0.019343  -0.000000
    94  H   -0.003216   0.000000
    95  H    0.008251  -0.000000
    96  H    0.050183  -0.000000
    97  H    0.047379   0.000000
    98  H    0.054817   0.000000
    99  H   -0.002217   0.000000
   100  H   -0.005723  -0.000000
   101  H   -0.001318   0.000000
   102  H   -0.004508   0.000000
   103  H    0.056608   0.000000
   104  H    0.047175   0.000000
   105  H    0.048146   0.000000
   106  H    0.000983  -0.000000
   107  H    0.031260  -0.000000
 Sum of Mulliken charges =  -0.00000  -0.00000

 Dipole moment (field-independent basis, Debye):
    X=              3.9109    Y=              0.5129    Z=             -0.9952  Tot=              4.0680
 Quadrupole moment (field-independent basis, Debye-Ang):
   XX=           -373.6995   YY=           -337.7354   ZZ=           -440.1290
   XY=            -11.9425   XZ=              4.7166   YZ=              1.2867

 Normal termination of Gaussian 16 at Fri Jul 24 00:04:12 2020.
