 Gaussian 16, Revision A.03,
 Gaussian 16:  EM64L-G16RevA.03 25-Dec-2016

 ---------------------------------------------------------------
 #P uLC-wPBE/cc-pVDZ iop(3/107=0420000000, 3/108=0420000000) opt
 ---------------------------------------------------------------

 -------------
 H37 C63 S7 N7
 -------------
 Symbolic Z-matrix:
 Charge =  0 Multiplicity = 1

 SCF Done:  E(ULC-wPBE) =  -5590.66246352     A.U. after   16 cycles
 SCF Done:  E(ULC-wPBE) =  -5590.75889786     A.U. after   14 cycles
 SCF Done:  E(ULC-wPBE) =  -5590.84881270     A.U. after   15 cycles
 SCF Done:  E(ULC-wPBE) =  -5590.87401325     A.U. after   14 cycles
 SCF Done:  E(ULC-wPBE) =  -5590.88007461     A.U. after   13 cycles
 SCF Done:  E(ULC-wPBE) =  -5590.88090236     A.U. after   13 cycles
 SCF Done:  E(ULC-wPBE) =  -5590.88172538     A.U. after   13 cycles
 SCF Done:  E(ULC-wPBE) =  -5590.88216201     A.U. after   13 cycles
 SCF Done:  E(ULC-wPBE) =  -5590.88226511     A.U. after   12 cycles
 SCF Done:  E(ULC-wPBE) =  -5590.88234213     A.U. after   11 cycles
 SCF Done:  E(ULC-wPBE) =  -5590.88237328     A.U. after   11 cycles
 SCF Done:  E(ULC-wPBE) =  -5590.88239676     A.U. after   11 cycles
 SCF Done:  E(ULC-wPBE) =  -5590.88240706     A.U. after   11 cycles
 SCF Done:  E(ULC-wPBE) =  -5590.88241129     A.U. after   10 cycles
 SCF Done:  E(ULC-wPBE) =  -5590.88241307     A.U. after   10 cycles
 SCF Done:  E(ULC-wPBE) =  -5590.88241339     A.U. after    7 cycles
 SCF Done:  E(ULC-wPBE) =  -5590.88241352     A.U. after    7 cycles
 SCF Done:  E(ULC-wPBE) =  -5590.88241357     A.U. after    7 cycles
 SCF Done:  E(ULC-wPBE) =  -5590.88241360     A.U. after    7 cycles
 SCF Done:  E(ULC-wPBE) =  -5590.88241362     A.U. after    6 cycles
 Optimization completed.
    -- Stationary point found.

                         Standard orientation:
 ---------------------------------------------------------------------
 Center     Atomic      Atomic             Coordinates (Angstroms)
 Number     Number       Type             X           Y           Z
 ---------------------------------------------------------------------
      1          6           0       25.943350    4.451309   -1.041459
      2          6           0       25.489416    4.943210    0.173972
      3          6           0       24.249982    4.544269    0.640973
      4          6           0       23.498640    3.657171   -0.129852
      5          7           0       23.931654    3.182370   -1.298489
      6          6           0       25.122048    3.574618   -1.734346
      7          6           0       22.172611    3.185545    0.295789
      8          6           0       21.463538    3.468934    1.428490
      9          6           0       20.208904    2.809936    1.472374
     10          6           0       19.980596    2.033945    0.369700
     11         16           0       21.302641    2.112930   -0.730600
     12          6           0       18.796475    1.214150    0.080180
     13          6           0       18.865207    0.020740   -0.637280
     14          6           0       17.715466   -0.709474   -0.865839
     15          6           0       16.505356   -0.235657   -0.361307
     16          7           0       16.425414    0.907932    0.321039
     17          6           0       17.532098    1.604315    0.523210
     18          6           0       15.240315   -0.957698   -0.548908
     19          6           0       14.994910   -2.144043   -1.181206
     20          6           0       13.626525   -2.511645   -1.148011
     21          6           0       12.848573   -1.599264   -0.489691
     22         16           0       13.792167   -0.279680    0.086563
     23          6           0       11.398267   -1.660246   -0.263647
     24          6           0       10.541504   -2.266222   -1.179660
     25          6           0        9.185919   -2.316704   -0.918169
     26          6           0        8.701275   -1.745518    0.257829
     27          7           0        9.510905   -1.157446    1.140691
     28          6           0       10.807661   -1.124794    0.882870
     29          6           0        7.271990   -1.746660    0.607401
     30          6           0        6.715813   -1.211767    1.732408
     31          6           0        5.307923   -1.373056    1.784428
     32          6           0        4.803275   -2.029541    0.697320
     33         16           0        6.063649   -2.446843   -0.402422
     34          6           0        3.403661   -2.371264    0.413568
     35          6           0        3.034705   -3.523670   -0.278843
     36          6           0        1.698539   -3.791997   -0.501583
     37          6           0        0.742675   -2.900775   -0.015760
     38          7           0        1.083463   -1.792044    0.643288
     39          6           0        2.367240   -1.539810    0.839988
     40          6           0       -0.697854   -3.118797   -0.199111
     41          6           0       -1.356182   -4.149695   -0.808583
     42          6           0       -2.764692   -3.995827   -0.779552
     43          6           0       -3.159443   -2.848851   -0.147245
     44         16           0       -1.802241   -1.948034    0.409425
     45          6           0       -4.533506   -2.375485    0.067599
     46          6           0       -5.551171   -2.651357   -0.842713
     47          6           0       -6.833295   -2.202565   -0.591642
     48          6           0       -7.078815   -1.468132    0.567931
     49          7           0       -6.111513   -1.192593    1.445045
     50          6           0       -4.890663   -1.636983    1.197610
     51          6           0       -8.412156   -0.945537    0.905489
     52          6           0       -8.740182   -0.230364    2.020142
     53          6           0      -10.110659    0.130060    2.061762
     54          6           0      -10.815664   -0.313999    0.978303
     55         16           0       -9.788289   -1.174141   -0.105931
     56          6           0      -12.243637   -0.127617    0.690921
     57          6           0      -12.929665    1.008517    1.114607
     58          6           0      -14.277139    1.135278    0.838769
     59          6           0      -14.922063    0.123408    0.127969
     60          7           0      -14.274600   -0.967123   -0.287408
     61          6           0      -12.986994   -1.080540   -0.007980
     62          6           0      -16.351410    0.184955   -0.214462
     63          6           0      -17.056902   -0.755668   -0.906372
     64          6           0      -18.420873   -0.408510   -1.079356
     65          6           0      -18.743163    0.794395   -0.516634
     66         16           0      -17.364953    1.503487    0.237968
     67          6           0      -20.048852    1.466359   -0.498285
     68          6           0      -20.183591    2.853496   -0.536418
     69          6           0      -21.442570    3.420323   -0.529253
     70          6           0      -22.558695    2.584832   -0.492516
     71          7           0      -22.441778    1.256562   -0.450219
     72          6           0      -21.229851    0.725538   -0.446324
     73          6           0      -23.930815    3.109798   -0.495205
     74          6           0      -24.369210    4.403667   -0.540013
     75          6           0      -25.786256    4.504953   -0.526245
     76          6           0      -26.385405    3.283654   -0.471353
     77         16           0      -25.251405    2.006590   -0.436061
     78          1           0       26.912595    4.739540   -1.446586
     79          1           0       26.098361    5.636002    0.756118
     80          1           0       23.868711    4.916378    1.590439
     81          1           0       25.437667    3.162215   -2.696334
     82          1           0       21.824291    4.122951    2.219814
     83          1           0       19.512548    2.887483    2.305396
     84          1           0       19.825603   -0.341967   -1.007016
     85          1           0       17.759846   -1.643098   -1.423840
     86          1           0       17.412210    2.546915    1.063524
     87          1           0       15.767003   -2.748803   -1.652599
     88          1           0       13.237006   -3.434659   -1.573959
     89          1           0       10.936656   -2.683649   -2.106309
     90          1           0        8.507343   -2.786128   -1.630463
     91          1           0       11.433183   -0.647531    1.643027
     92          1           0        7.323704   -0.726939    2.492255
     93          1           0        4.689073   -1.036733    2.614379
     94          1           0        3.797821   -4.218643   -0.632935
     95          1           0        1.400984   -4.690091   -1.039945
     96          1           0        2.597784   -0.607098    1.361164
     97          1           0       -0.855688   -5.003823   -1.260328
     98          1           0       -3.462076   -4.724486   -1.189180
     99          1           0       -5.333750   -3.204699   -1.756825
    100          1           0       -7.635789   -2.412079   -1.298936
    101          1           0       -4.135141   -1.401339    1.952987
    102          1           0       -8.000531    0.011363    2.779375
    103          1           0      -10.568063    0.679664    2.882652
    104          1           0      -12.402155    1.800754    1.646664
    105          1           0      -14.821933    2.021646    1.163835
    106          1           0      -12.503758   -1.999452   -0.353328
    107          1           0      -16.584829   -1.661754   -1.278055
    108          1           0      -19.137645   -1.017861   -1.626883
    109          1           0      -19.298199    3.489530   -0.585260
    110          1           0      -21.557826    4.502230   -0.561518
    111          1           0      -21.184972   -0.364960   -0.384669
    112          1           0      -23.705699    5.265287   -0.582468
    113          1           0      -26.331517    5.446311   -0.556030
    114          1           0      -27.451251    3.069105   -0.449563
 ---------------------------------------------------------------------

 Alpha  occ. eigenvalues --   -7.94195  -7.94151  -7.94131  -7.93416  -5.96152
 Alpha  occ. eigenvalues --   -5.96043  -5.96034  -5.95633  -5.95623  -5.95590
 Alpha  occ. eigenvalues --   -5.95569  -5.95512  -5.95505  -5.95214  -5.95106
 Alpha  occ. eigenvalues --   -5.95096  -5.95089  -5.95043  -5.95023  -5.94845
 Alpha  occ. eigenvalues --   -5.94711  -5.94668  -5.94648  -5.94297  -5.93952
 Alpha  occ. eigenvalues --   -1.12363  -1.12258  -1.12119  -1.12047  -1.12011
 Alpha  occ. eigenvalues --   -1.11958  -1.11928  -1.06683  -1.06548  -1.06361
 Alpha  occ. eigenvalues --   -1.06178  -1.05945  -1.05817  -1.04915  -0.99254
 Alpha  occ. eigenvalues --   -0.99002  -0.98733  -0.98392  -0.98185  -0.98064
 Alpha  occ. eigenvalues --   -0.97370  -0.96069  -0.95885  -0.95733  -0.95313
 Alpha  occ. eigenvalues --   -0.94871  -0.94344  -0.93943  -0.91027  -0.90528
 Alpha  occ. eigenvalues --   -0.90276  -0.90211  -0.90049  -0.89931  -0.89811
 Alpha  occ. eigenvalues --   -0.89457  -0.89104  -0.88938  -0.87802  -0.86786
 Alpha  occ. eigenvalues --   -0.85691  -0.84902  -0.81603  -0.80831  -0.80129
 Alpha  occ. eigenvalues --   -0.79913  -0.79644  -0.79558  -0.79156  -0.78922
 Alpha  occ. eigenvalues --   -0.78728  -0.78492  -0.78229  -0.77564  -0.76889
 Alpha  occ. eigenvalues --   -0.76528  -0.71134  -0.71129  -0.70953  -0.70757
 Alpha  occ. eigenvalues --   -0.70642  -0.70621  -0.70441  -0.70357  -0.70175
 Alpha  occ. eigenvalues --   -0.69979  -0.69712  -0.69535  -0.69490  -0.69192
 Alpha  occ. eigenvalues --   -0.67645  -0.67401  -0.67191  -0.66928  -0.66542
 Alpha  occ. eigenvalues --   -0.66044  -0.65492  -0.64101  -0.63566  -0.63442
 Alpha  occ. eigenvalues --   -0.63297  -0.63126  -0.62985  -0.62967  -0.62712
 Alpha  occ. eigenvalues --   -0.61778  -0.60983  -0.60286  -0.59691  -0.59432
 Alpha  occ. eigenvalues --   -0.59233  -0.59071  -0.58764  -0.58708  -0.58327
 Alpha  occ. eigenvalues --   -0.58010  -0.57775  -0.57620  -0.57345  -0.57271
 Alpha  occ. eigenvalues --   -0.57049  -0.56908  -0.56705  -0.56630  -0.56568
 Alpha  occ. eigenvalues --   -0.55177  -0.54818  -0.54579  -0.54515  -0.54390
 Alpha  occ. eigenvalues --   -0.54144  -0.54076  -0.53970  -0.53824  -0.53728
 Alpha  occ. eigenvalues --   -0.53562  -0.53378  -0.53225  -0.52765  -0.52697
 Alpha  occ. eigenvalues --   -0.52426  -0.52201  -0.51946  -0.51828  -0.51635
 Alpha  occ. eigenvalues --   -0.51481  -0.51327  -0.51169  -0.51032  -0.51001
 Alpha  occ. eigenvalues --   -0.50814  -0.50696  -0.50552  -0.49912  -0.49656
 Alpha  occ. eigenvalues --   -0.49636  -0.49572  -0.49415  -0.49212  -0.49181
 Alpha  occ. eigenvalues --   -0.49078  -0.46840  -0.46716  -0.46606  -0.46388
 Alpha  occ. eigenvalues --   -0.46213  -0.46091  -0.45976  -0.44730  -0.44190
 Alpha  occ. eigenvalues --   -0.43443  -0.42532  -0.41803  -0.41393  -0.41200
 Alpha  occ. eigenvalues --   -0.40623  -0.40541  -0.40480  -0.40290  -0.39970
 Alpha  occ. eigenvalues --   -0.39265  -0.38814  -0.38768  -0.38685  -0.38587
 Alpha  occ. eigenvalues --   -0.38428  -0.38379  -0.38332  -0.38165  -0.36835
 Alpha  occ. eigenvalues --   -0.36738  -0.36712  -0.36593  -0.36546  -0.36524
 Alpha  occ. eigenvalues --   -0.35772  -0.35394  -0.34306  -0.33001  -0.31710
 Alpha  occ. eigenvalues --   -0.30552  -0.29596  -0.29002
 Alpha virt. eigenvalues --   -0.01352  -0.00708   0.00191   0.01381   0.02570
 Alpha virt. eigenvalues --    0.03752   0.04542   0.05101   0.05265   0.05275
 Alpha virt. eigenvalues --    0.05385   0.05480   0.05509   0.05710   0.07652

  Beta  occ. eigenvalues --  -88.33878 -88.33772 -88.33760 -88.33424 -88.33384
  Beta  occ. eigenvalues --  -88.33364 -88.32634 -14.23626 -14.23524 -14.23433
  Beta  occ. eigenvalues --  -14.23362 -14.23302 -14.23243 -14.23222 -10.19278
  Beta  occ. eigenvalues --  -10.19253 -10.19163 -10.19157 -10.19124 -10.19058
  Beta  occ. eigenvalues --  -10.18892 -10.17924 -10.17877 -10.17803 -10.17795
  Beta  occ. eigenvalues --  -10.17788 -10.17753 -10.17722 -10.17666 -10.17619
  Beta  occ. eigenvalues --  -10.17608 -10.17483 -10.17468 -10.17452 -10.17065
  Beta  occ. eigenvalues --  -10.17046 -10.17019 -10.16981 -10.16876 -10.16875
  Beta  occ. eigenvalues --  -10.16591 -10.16526 -10.16439 -10.16419 -10.16401
  Beta  occ. eigenvalues --  -10.16354 -10.16332 -10.16328 -10.16307 -10.16288
  Beta  occ. eigenvalues --  -10.16275 -10.16267 -10.16231 -10.16215 -10.15740
  Beta  occ. eigenvalues --  -10.15406 -10.15269 -10.15247 -10.15229 -10.15210
  Beta  occ. eigenvalues --  -10.15129 -10.15010 -10.14940 -10.14595 -10.14592
  Beta  occ. eigenvalues --  -10.14550 -10.14355 -10.14302 -10.14293 -10.14287
  Beta  occ. eigenvalues --  -10.14286 -10.14206 -10.13943 -10.13880 -10.13877
  Beta  occ. eigenvalues --  -10.13875 -10.13511  -7.94720  -7.94611  -7.94602
  Beta  occ. eigenvalues --   -7.94195  -7.94151  -7.94131  -7.93416  -5.96152
  Beta  occ. eigenvalues --   -5.96043  -5.96034  -5.95633  -5.95623  -5.95590
  Beta  occ. eigenvalues --   -5.95569  -5.95512  -5.95505  -5.95214  -5.95106
  Beta  occ. eigenvalues --   -5.95096  -5.95089  -5.95043  -5.95023  -5.94845
  Beta  occ. eigenvalues --   -5.94711  -5.94668  -5.94648  -5.94297  -5.93952
  Beta  occ. eigenvalues --   -1.12363  -1.12258  -1.12119  -1.12047  -1.12011
  Beta  occ. eigenvalues --   -1.11958  -1.11928  -1.06683  -1.06548  -1.06361
  Beta  occ. eigenvalues --   -1.06178  -1.05945  -1.05817  -1.04915  -0.99254
  Beta  occ. eigenvalues --   -0.99002  -0.98733  -0.98392  -0.98185  -0.98064
  Beta  occ. eigenvalues --   -0.97370  -0.96069  -0.95885  -0.95733  -0.95313
  Beta  occ. eigenvalues --   -0.94871  -0.94344  -0.93943  -0.91027  -0.90528
  Beta  occ. eigenvalues --   -0.90276  -0.90211  -0.90049  -0.89931  -0.89811
  Beta  occ. eigenvalues --   -0.89457  -0.89104  -0.88938  -0.87802  -0.86786
  Beta  occ. eigenvalues --   -0.85691  -0.84902  -0.81603  -0.80831  -0.80129
  Beta  occ. eigenvalues --   -0.79913  -0.79644  -0.79558  -0.79156  -0.78922
  Beta  occ. eigenvalues --   -0.78728  -0.78492  -0.78229  -0.77564  -0.76889
  Beta  occ. eigenvalues --   -0.76528  -0.71134  -0.71129  -0.70953  -0.70757
  Beta  occ. eigenvalues --   -0.70642  -0.70621  -0.70441  -0.70357  -0.70175
  Beta  occ. eigenvalues --   -0.69979  -0.69712  -0.69535  -0.69490  -0.69192
  Beta  occ. eigenvalues --   -0.67645  -0.67401  -0.67191  -0.66928  -0.66542
  Beta  occ. eigenvalues --   -0.66044  -0.65492  -0.64101  -0.63566  -0.63442
  Beta  occ. eigenvalues --   -0.63297  -0.63126  -0.62985  -0.62967  -0.62712
  Beta  occ. eigenvalues --   -0.61778  -0.60983  -0.60286  -0.59691  -0.59432
  Beta  occ. eigenvalues --   -0.59233  -0.59071  -0.58764  -0.58708  -0.58327
  Beta  occ. eigenvalues --   -0.58010  -0.57775  -0.57620  -0.57345  -0.57271
  Beta  occ. eigenvalues --   -0.57049  -0.56908  -0.56705  -0.56630  -0.56568
  Beta  occ. eigenvalues --   -0.55177  -0.54818  -0.54579  -0.54515  -0.54390
  Beta  occ. eigenvalues --   -0.54144  -0.54076  -0.53970  -0.53824  -0.53728
  Beta  occ. eigenvalues --   -0.53562  -0.53378  -0.53225  -0.52765  -0.52697
  Beta  occ. eigenvalues --   -0.52426  -0.52201  -0.51946  -0.51828  -0.51635
  Beta  occ. eigenvalues --   -0.51481  -0.51327  -0.51169  -0.51032  -0.51001
  Beta  occ. eigenvalues --   -0.50814  -0.50696  -0.50552  -0.49912  -0.49656
  Beta  occ. eigenvalues --   -0.49636  -0.49572  -0.49415  -0.49212  -0.49181
  Beta  occ. eigenvalues --   -0.49078  -0.46840  -0.46716  -0.46606  -0.46388
  Beta  occ. eigenvalues --   -0.46213  -0.46091  -0.45976  -0.44730  -0.44190
  Beta  occ. eigenvalues --   -0.43443  -0.42532  -0.41803  -0.41393  -0.41200
  Beta  occ. eigenvalues --   -0.40623  -0.40541  -0.40480  -0.40290  -0.39970
  Beta  occ. eigenvalues --   -0.39265  -0.38814  -0.38768  -0.38685  -0.38587
  Beta  occ. eigenvalues --   -0.38428  -0.38379  -0.38332  -0.38165  -0.36835
  Beta  occ. eigenvalues --   -0.36738  -0.36712  -0.36593  -0.36546  -0.36524
  Beta  occ. eigenvalues --   -0.35772  -0.35394  -0.34306  -0.33001  -0.31710
  Beta  occ. eigenvalues --   -0.30552  -0.29596  -0.29002
  Beta virt. eigenvalues --   -0.01352  -0.00708   0.00191   0.01381   0.02570
  Beta virt. eigenvalues --    0.03752   0.04542   0.05101   0.05265   0.05275
  Beta virt. eigenvalues --    0.05385   0.05480   0.05509   0.05710   0.07652

 Mulliken charges and spin densities:
               1          2
     1  C   -0.067759  -0.000000
     2  C    0.061327   0.000000
     3  C   -0.034068  -0.000000
     4  C    0.136714   0.000000
     5  N   -0.221308   0.000000
     6  C    0.090653  -0.000000
     7  C   -0.155475  -0.000000
     8  C   -0.007435   0.000000
     9  C    0.022369  -0.000000
    10  C   -0.170198   0.000000
    11  S    0.210372  -0.000000
    12  C   -0.041171  -0.000000
    13  C    0.062804   0.000000
    14  C   -0.013715   0.000000
    15  C    0.143842  -0.000000
    16  N   -0.218994   0.000000
    17  C    0.099735   0.000000
    18  C   -0.160496   0.000000
    19  C   -0.012090   0.000000
    20  C    0.022291   0.000000
    21  C   -0.172089  -0.000000
    22  S    0.218099   0.000000
    23  C   -0.038012   0.000000
    24  C    0.057193  -0.000000
    25  C   -0.019731   0.000000
    26  C    0.115883  -0.000000
    27  N   -0.203864  -0.000000
    28  C    0.096479  -0.000000
    29  C   -0.175605   0.000000
    30  C    0.058531   0.000000
    31  C    0.024509  -0.000000
    32  C   -0.163670  -0.000000
    33  S    0.146577  -0.000000
    34  C   -0.037401   0.000000
    35  C    0.060740   0.000000
    36  C   -0.013110   0.000000
    37  C    0.144224   0.000000
    38  N   -0.218428  -0.000000
    39  C    0.100959  -0.000000
    40  C   -0.160973  -0.000000
    41  C   -0.012034   0.000000
    42  C    0.022434  -0.000000
    43  C   -0.171777   0.000000
    44  S    0.218725  -0.000000
    45  C   -0.038210  -0.000000
    46  C    0.057100   0.000000
    47  C   -0.019533  -0.000000
    48  C    0.115893   0.000000
    49  N   -0.204066  -0.000000
    50  C    0.096376   0.000000
    51  C   -0.176407   0.000000
    52  C    0.058794  -0.000000
    53  C    0.022021  -0.000000
    54  C   -0.164229   0.000000
    55  S    0.152634   0.000000
    56  C   -0.033137  -0.000000
    57  C    0.057420   0.000000
    58  C   -0.019077  -0.000000
    59  C    0.116019   0.000000
    60  N   -0.203775  -0.000000
    61  C    0.094113   0.000000
    62  C   -0.176352  -0.000000
    63  C    0.058122  -0.000000
    64  C    0.024580   0.000000
    65  C   -0.162488  -0.000000
    66  S    0.147366   0.000000
    67  C   -0.039349  -0.000000
    68  C    0.059774   0.000000
    69  C   -0.012699  -0.000000
    70  C    0.149504   0.000000
    71  N   -0.217899  -0.000000
    72  C    0.099095   0.000000
    73  C   -0.159922  -0.000000
    74  C   -0.042954   0.000000
    75  C    0.047571  -0.000000
    76  C   -0.151869   0.000000
    77  S    0.202830  -0.000000
    78  H    0.017943   0.000000
    79  H    0.021100  -0.000000
    80  H    0.012730   0.000000
    81  H    0.027087   0.000000
    82  H    0.009087   0.000000
    83  H    0.009690   0.000000
    84  H    0.020853   0.000000
    85  H    0.011986   0.000000
    86  H    0.023275  -0.000000
    87  H    0.008175  -0.000000
    88  H    0.005946  -0.000000
    89  H    0.011148  -0.000000
    90  H    0.023473  -0.000000
    91  H    0.029772   0.000000
    92  H    0.018287  -0.000000
    93  H    0.013879  -0.000000
    94  H    0.018120   0.000000
    95  H    0.012077  -0.000000
    96  H    0.025130   0.000000
    97  H    0.008032  -0.000000
    98  H    0.006553   0.000000
    99  H    0.011323   0.000000
   100  H    0.024778  -0.000000
   101  H    0.029640  -0.000000
   102  H    0.017531   0.000000
   103  H    0.010379  -0.000000
   104  H    0.012668   0.000000
   105  H    0.024530  -0.000000
   106  H    0.026939  -0.000000
   107  H    0.017310  -0.000000
   108  H    0.013534   0.000000
   109  H    0.017193  -0.000000
   110  H    0.012312  -0.000000
   111  H    0.023981  -0.000000
   112  H    0.008188   0.000000
   113  H    0.010420  -0.000000
   114  H    0.042628  -0.000000
 Sum of Mulliken charges =  -0.00000  -0.00000

 Dipole moment (field-independent basis, Debye):
    X=              8.5527    Y=              0.3687    Z=             -1.5587  Tot=              8.7014
 Quadrupole moment (field-independent basis, Debye-Ang):
   XX=           -342.7079   YY=           -431.9417   ZZ=           -477.4752
   XY=            -16.7912   XZ=              5.2538   YZ=             32.1860

 Normal termination of Gaussian 16 at Fri Jul 24 00:14:50 2020.
