 Gaussian 16, Revision A.03,
 Gaussian 16:  EM64L-G16RevA.03 25-Dec-2016

 ---------------------------------------------------------------
 #P uLC-wPBE/cc-pVDZ iop(3/107=0177300000, 3/108=0177300000) opt
 ---------------------------------------------------------------

 -------------
 H27 C50 S5 F5
 -------------
 Symbolic Z-matrix:
 Charge =  0 Multiplicity = 1

 SCF Done:  E(ULC-wPBE) =  -4408.88823440     A.U. after   18 cycles
 SCF Done:  E(ULC-wPBE) =  -4408.95943614     A.U. after   15 cycles
 SCF Done:  E(ULC-wPBE) =  -4409.00930806     A.U. after   16 cycles
 SCF Done:  E(ULC-wPBE) =  -4409.02369949     A.U. after   15 cycles
 SCF Done:  E(ULC-wPBE) =  -4409.02866282     A.U. after   15 cycles
 SCF Done:  E(ULC-wPBE) =  -4409.02993985     A.U. after   15 cycles
 SCF Done:  E(ULC-wPBE) =  -4409.03057715     A.U. after   17 cycles
 SCF Done:  E(ULC-wPBE) =  -4409.03084303     A.U. after   13 cycles
 SCF Done:  E(ULC-wPBE) =  -4409.03089234     A.U. after   13 cycles
 SCF Done:  E(ULC-wPBE) =  -4409.03091696     A.U. after   11 cycles
 SCF Done:  E(ULC-wPBE) =  -4409.03092163     A.U. after   11 cycles
 SCF Done:  E(ULC-wPBE) =  -4409.03092430     A.U. after   11 cycles
 SCF Done:  E(ULC-wPBE) =  -4409.03092551     A.U. after   10 cycles
 SCF Done:  E(ULC-wPBE) =  -4409.03092640     A.U. after   10 cycles
 SCF Done:  E(ULC-wPBE) =  -4409.03092676     A.U. after   10 cycles
 SCF Done:  E(ULC-wPBE) =  -4409.03092692     A.U. after    7 cycles
 SCF Done:  E(ULC-wPBE) =  -4409.03092697     A.U. after    6 cycles
 SCF Done:  E(ULC-wPBE) =  -4409.03092701     A.U. after    6 cycles
 SCF Done:  E(ULC-wPBE) =  -4409.03092699     A.U. after    6 cycles
 SCF Done:  E(ULC-wPBE) =  -4409.03092697     A.U. after    5 cycles
 Optimization completed.
    -- Stationary point found.

                         Standard orientation:
 ---------------------------------------------------------------------
 Center     Atomic      Atomic             Coordinates (Angstroms)
 Number     Number       Type             X           Y           Z
 ---------------------------------------------------------------------
      1          6           0       18.813516   -1.590409   -1.527464
      2          6           0       17.613887   -2.286927   -1.336343
      3          6           0       16.459060   -1.606183   -0.941778
      4          6           0       16.473984   -0.210188   -0.738102
      5          6           0       17.688946    0.481616   -0.934702
      6          6           0       18.842976   -0.205546   -1.322495
      7          6           0       15.253400    0.506175   -0.334964
      8          6           0       15.103319    1.746765    0.258868
      9          9           0       16.148890    2.539660    0.589333
     10          6           0       13.770390    2.148106    0.532391
     11          6           0       12.851675    1.194605    0.138237
     12         16           0       13.661150   -0.176911   -0.580862
     13          6           0       11.384939    1.237158    0.244172
     14          6           0       10.614213    0.060774    0.329903
     15          6           0        9.225613    0.117463    0.438223
     16          6           0        8.542928    1.351731    0.466931
     17          6           0        9.315733    2.531078    0.383063
     18          6           0       10.704096    2.471163    0.270514
     19          6           0        7.078968    1.406501    0.574316
     20          6           0        6.249081    2.459022    0.920783
     21          9           0        6.710533    3.688572    1.246295
     22          6           0        4.859893    2.175038    0.940720
     23          6           0        4.595062    0.863050    0.597803
     24         16           0        6.077313    0.010218    0.240204
     25          6           0        3.291816    0.187952    0.498717
     26          6           0        2.124549    0.925390    0.214556
     27          6           0        0.883219    0.298085    0.129516
     28          6           0        0.749373   -1.093892    0.321384
     29          6           0        1.920074   -1.833166    0.598408
     30          6           0        3.160616   -1.202121    0.686762
     31          6           0       -0.563423   -1.747114    0.237106
     32          6           0       -0.886876   -3.086224    0.099192
     33          9           0        0.041702   -4.065481    0.004938
     34          6           0       -2.270942   -3.388716    0.037550
     35          6           0       -3.053196   -2.253842    0.132434
     36         16           0       -2.054069   -0.832130    0.313535
     37          6           0       -4.520374   -2.148220    0.113833
     38          6           0       -5.321531   -3.227993    0.536965
     39          6           0       -6.713364   -3.150102    0.514403
     40          6           0       -7.367586   -1.979048    0.071673
     41          6           0       -6.563892   -0.898679   -0.349580
     42          6           0       -5.172601   -0.980709   -0.329577
     43          6           0       -8.833243   -1.884915    0.054805
     44          6           0       -9.791951   -2.880922    0.129499
     45          9           0       -9.486830   -4.195222    0.228528
     46          6           0      -11.141827   -2.450079    0.073397
     47          6           0      -11.241980   -1.077280   -0.046287
     48         16           0       -9.656203   -0.344887   -0.069966
     49          6           0      -12.456474   -0.251036   -0.130131
     50          6           0      -12.458615    0.998252   -0.781051
     51          6           0      -13.616020    1.772427   -0.862158
     52          6           0      -14.828494    1.323393   -0.296193
     53          6           0      -14.823952    0.073554    0.358675
     54          6           0      -13.665363   -0.696597    0.441606
     55          6           0      -16.055391    2.128755   -0.385821
     56          6           0      -16.215653    3.474641   -0.667317
     57          9           0      -15.179205    4.306835   -0.918208
     58          6           0      -17.555356    3.952381   -0.667360
     59          6           0      -18.440203    2.941422   -0.382071
     60         16           0      -17.639472    1.430753   -0.122863
     61          1           0       19.722369   -2.125468   -1.833985
     62          1           0       17.576041   -3.374163   -1.488641
     63          1           0       15.529884   -2.169969   -0.777145
     64          1           0       17.723998    1.566671   -0.785992
     65          1           0       19.777343    0.352934   -1.470890
     66          1           0       13.519748    3.089522    1.031831
     67          1           0       11.113304   -0.918247    0.336611
     68          1           0        8.660553   -0.821296    0.522730
     69          1           0        8.818486    3.507099    0.390477
     70          1           0       11.272758    3.405788    0.175790
     71          1           0        4.103298    2.910449    1.232531
     72          1           0        2.194708    2.005463    0.029922
     73          1           0       -0.001586    0.903021   -0.113215
     74          1           0        1.853943   -2.914358    0.760581
     75          1           0        4.047825   -1.803230    0.930625
     76          1           0       -2.655536   -4.403513   -0.106075
     77          1           0       -4.844163   -4.141326    0.916161
     78          1           0       -7.305350   -4.004529    0.859871
     79          1           0       -7.036338    0.021344   -0.720969
     80          1           0       -4.579830   -0.128336   -0.689745
     81          1           0      -11.991050   -3.140757    0.086790
     82          1           0      -11.537843    1.364920   -1.256107
     83          1           0      -13.584384    2.734693   -1.384600
     84          1           0      -15.742968   -0.296777    0.834101
     85          1           0      -13.691538   -1.650383    0.984919
     86          1           0      -17.826530    4.993810   -0.867892
     87          1           0      -19.530608    2.995167   -0.314511
 ---------------------------------------------------------------------

 The electronic state is 1-A.
 Alpha  occ. eigenvalues --  -88.21492 -88.21270 -88.21168 -88.20998 -88.20610
 Alpha  occ. eigenvalues --  -24.40030 -24.40003 -24.39887 -24.39718 -24.39230
 Alpha  occ. eigenvalues --  -10.09050 -10.09034 -10.08922 -10.08741 -10.08267
 Alpha  occ. eigenvalues --  -10.05136 -10.05028 -10.04860 -10.04492 -10.04474
 Alpha  occ. eigenvalues --  -10.04443 -10.04435 -10.04332 -10.04157 -10.03705
 Alpha  occ. eigenvalues --  -10.03457 -10.03373 -10.03252 -10.03177 -10.03069
 Alpha  occ. eigenvalues --  -10.03008 -10.02940 -10.02681 -10.02363 -10.02139
 Alpha  occ. eigenvalues --  -10.01893 -10.01833 -10.01786 -10.01776 -10.01731
 Alpha  occ. eigenvalues --  -10.01716 -10.01680 -10.01631 -10.01611 -10.01606
 Alpha  occ. eigenvalues --  -10.01568 -10.01484 -10.01469 -10.01377 -10.01352
 Alpha  occ. eigenvalues --  -10.01322 -10.01256 -10.01248 -10.01224 -10.01033
 Alpha  occ. eigenvalues --  -10.00610 -10.00511 -10.00406 -10.00346 -10.00311
 Alpha  occ. eigenvalues --   -7.81828  -7.81604  -7.81503  -7.81332  -7.80943
 Alpha  occ. eigenvalues --   -5.83870  -5.83654  -5.83553  -5.83411  -5.83381
 Alpha  occ. eigenvalues --   -5.83199  -5.83099  -5.82994  -5.82991  -5.82927
 Alpha  occ. eigenvalues --   -5.82749  -5.82648  -5.82538  -5.82477  -5.82090
 Alpha  occ. eigenvalues --   -1.23381  -1.23354  -1.23240  -1.23065  -1.22575
 Alpha  occ. eigenvalues --   -0.93456  -0.93258  -0.93047  -0.92966  -0.92623
 Alpha  occ. eigenvalues --   -0.90225  -0.89810  -0.89367  -0.88968  -0.88178
 Alpha  occ. eigenvalues --   -0.84306  -0.83545  -0.82597  -0.81588  -0.80253
 Alpha  occ. eigenvalues --   -0.79550  -0.79339  -0.79218  -0.78923  -0.78488
 Alpha  occ. eigenvalues --   -0.78405  -0.78039  -0.77968  -0.77731  -0.77616
 Alpha  occ. eigenvalues --   -0.77119  -0.76579  -0.75301  -0.74037  -0.73009
 Alpha  occ. eigenvalues --   -0.69277  -0.68315  -0.67480  -0.67064  -0.66609
 Alpha  occ. eigenvalues --   -0.66298  -0.65883  -0.65486  -0.64943  -0.64474
 Alpha  occ. eigenvalues --   -0.62955  -0.62406  -0.62251  -0.61960  -0.61770
 Alpha  occ. eigenvalues --   -0.61304  -0.61129  -0.60933  -0.60774  -0.60450
 Alpha  occ. eigenvalues --   -0.59511  -0.59251  -0.58697  -0.58426  -0.58049
 Alpha  occ. eigenvalues --   -0.54574  -0.54229  -0.53735  -0.53467  -0.53285
 Alpha  occ. eigenvalues --   -0.52777  -0.52409  -0.52328  -0.51966  -0.51851
 Alpha  occ. eigenvalues --   -0.51662  -0.51412  -0.51388  -0.51323  -0.51204
 Alpha  occ. eigenvalues --   -0.50882  -0.50834  -0.50673  -0.50562  -0.50336
 Alpha  occ. eigenvalues --   -0.49909  -0.48890  -0.48556  -0.48444  -0.48184
 Alpha  occ. eigenvalues --   -0.48133  -0.47954  -0.47601  -0.47470  -0.47370
 Alpha  occ. eigenvalues --   -0.47302  -0.47027  -0.46893  -0.46579  -0.46358
 Alpha  occ. eigenvalues --   -0.45955  -0.45750  -0.45334  -0.45002  -0.44766
 Alpha  occ. eigenvalues --   -0.44443  -0.44289  -0.43992  -0.43436  -0.43376
 Alpha  occ. eigenvalues --   -0.43258  -0.42940  -0.42732  -0.42519  -0.42284
 Alpha  occ. eigenvalues --   -0.42048  -0.41743  -0.41474  -0.41346  -0.41044
 Alpha  occ. eigenvalues --   -0.40827  -0.40700  -0.40489  -0.40367  -0.40191
 Alpha  occ. eigenvalues --   -0.39367  -0.39260  -0.38843  -0.38446  -0.38170
 Alpha  occ. eigenvalues --   -0.37768  -0.37558  -0.36649  -0.35498  -0.34201
 Alpha  occ. eigenvalues --   -0.32900  -0.32765  -0.32675  -0.32552  -0.32312
 Alpha  occ. eigenvalues --   -0.31641  -0.31547  -0.31468  -0.31384  -0.31234
 Alpha  occ. eigenvalues --   -0.30808  -0.30040  -0.28638  -0.27065  -0.25628
 Alpha  occ. eigenvalues --   -0.24595
 Alpha virt. eigenvalues --   -0.03815  -0.02646  -0.01144   0.00504   0.02129
 Alpha virt. eigenvalues --    0.02530   0.02678   0.02887   0.03106   0.03599
 Alpha virt. eigenvalues --    0.03997   0.04990   0.06132   0.06536   0.06787

  Beta  occ. eigenvalues --  -88.21492 -88.21270 -88.21168 -88.20998 -88.20610
  Beta  occ. eigenvalues --  -24.40030 -24.40003 -24.39887 -24.39718 -24.39230
  Beta  occ. eigenvalues --  -10.09050 -10.09034 -10.08922 -10.08741 -10.08267
  Beta  occ. eigenvalues --  -10.05136 -10.05028 -10.04860 -10.04492 -10.04474
  Beta  occ. eigenvalues --  -10.04443 -10.04435 -10.04332 -10.04157 -10.03705
  Beta  occ. eigenvalues --  -10.03457 -10.03373 -10.03252 -10.03177 -10.03069
  Beta  occ. eigenvalues --  -10.03008 -10.02940 -10.02681 -10.02363 -10.02139
  Beta  occ. eigenvalues --  -10.01893 -10.01833 -10.01786 -10.01776 -10.01731
  Beta  occ. eigenvalues --  -10.01716 -10.01680 -10.01631 -10.01611 -10.01606
  Beta  occ. eigenvalues --  -10.01568 -10.01484 -10.01469 -10.01377 -10.01352
  Beta  occ. eigenvalues --  -10.01322 -10.01256 -10.01248 -10.01224 -10.01033
  Beta  occ. eigenvalues --  -10.00610 -10.00511 -10.00406 -10.00346 -10.00311
  Beta  occ. eigenvalues --   -7.81828  -7.81604  -7.81503  -7.81332  -7.80943
  Beta  occ. eigenvalues --   -5.83870  -5.83654  -5.83553  -5.83411  -5.83381
  Beta  occ. eigenvalues --   -5.83199  -5.83099  -5.82994  -5.82991  -5.82927
  Beta  occ. eigenvalues --   -5.82749  -5.82648  -5.82538  -5.82477  -5.82090
  Beta  occ. eigenvalues --   -1.23381  -1.23354  -1.23240  -1.23065  -1.22575
  Beta  occ. eigenvalues --   -0.93456  -0.93258  -0.93047  -0.92966  -0.92623
  Beta  occ. eigenvalues --   -0.90225  -0.89810  -0.89367  -0.88968  -0.88178
  Beta  occ. eigenvalues --   -0.84306  -0.83545  -0.82597  -0.81588  -0.80253
  Beta  occ. eigenvalues --   -0.79550  -0.79339  -0.79218  -0.78923  -0.78488
  Beta  occ. eigenvalues --   -0.78405  -0.78039  -0.77968  -0.77731  -0.77616
  Beta  occ. eigenvalues --   -0.77119  -0.76579  -0.75301  -0.74037  -0.73009
  Beta  occ. eigenvalues --   -0.69277  -0.68315  -0.67480  -0.67064  -0.66609
  Beta  occ. eigenvalues --   -0.66298  -0.65883  -0.65486  -0.64943  -0.64474
  Beta  occ. eigenvalues --   -0.62955  -0.62406  -0.62251  -0.61960  -0.61770
  Beta  occ. eigenvalues --   -0.61304  -0.61129  -0.60933  -0.60774  -0.60450
  Beta  occ. eigenvalues --   -0.59511  -0.59251  -0.58697  -0.58426  -0.58049
  Beta  occ. eigenvalues --   -0.54574  -0.54229  -0.53735  -0.53467  -0.53285
  Beta  occ. eigenvalues --   -0.52777  -0.52409  -0.52328  -0.51966  -0.51851
  Beta  occ. eigenvalues --   -0.51662  -0.51412  -0.51388  -0.51323  -0.51204
  Beta  occ. eigenvalues --   -0.50882  -0.50834  -0.50673  -0.50562  -0.50336
  Beta  occ. eigenvalues --   -0.49909  -0.48890  -0.48556  -0.48444  -0.48184
  Beta  occ. eigenvalues --   -0.48133  -0.47954  -0.47601  -0.47470  -0.47370
  Beta  occ. eigenvalues --   -0.47302  -0.47027  -0.46893  -0.46579  -0.46358
  Beta  occ. eigenvalues --   -0.45955  -0.45750  -0.45334  -0.45002  -0.44766
  Beta  occ. eigenvalues --   -0.44443  -0.44289  -0.43992  -0.43436  -0.43376
  Beta  occ. eigenvalues --   -0.43258  -0.42940  -0.42732  -0.42519  -0.42284
  Beta  occ. eigenvalues --   -0.42048  -0.41743  -0.41474  -0.41346  -0.41044
  Beta  occ. eigenvalues --   -0.40827  -0.40700  -0.40489  -0.40367  -0.40191
  Beta  occ. eigenvalues --   -0.39367  -0.39260  -0.38843  -0.38446  -0.38170
  Beta  occ. eigenvalues --   -0.37768  -0.37558  -0.36649  -0.35498  -0.34201
  Beta  occ. eigenvalues --   -0.32900  -0.32765  -0.32675  -0.32552  -0.32312
  Beta  occ. eigenvalues --   -0.31641  -0.31547  -0.31468  -0.31384  -0.31234
  Beta  occ. eigenvalues --   -0.30808  -0.30040  -0.28638  -0.27065  -0.25628
  Beta  occ. eigenvalues --   -0.24595
  Beta virt. eigenvalues --   -0.03815  -0.02646  -0.01144   0.00504   0.02129
  Beta virt. eigenvalues --    0.02530   0.02678   0.02887   0.03106   0.03599
  Beta virt. eigenvalues --    0.03997   0.04990   0.06132   0.06536   0.06787

 Mulliken charges and spin densities:
               1          2
     1  C    0.024552  -0.000000
     2  C    0.031848   0.000000
     3  C   -0.012051  -0.000000
     4  C    0.070729   0.000000
     5  C   -0.005860  -0.000000
     6  C    0.034510  -0.000000
     7  C   -0.160001  -0.000000
     8  C    0.111994  -0.000000
     9  F   -0.123405   0.000000
    10  C    0.041323  -0.000000
    11  C   -0.141966   0.000000
    12  S    0.151815   0.000000
    13  C    0.083013  -0.000000
    14  C    0.005260   0.000000
    15  C   -0.003549  -0.000000
    16  C    0.092133   0.000000
    17  C    0.003286   0.000000
    18  C    0.009775  -0.000000
    19  C   -0.160766  -0.000000
    20  C    0.106966   0.000000
    21  F   -0.122566   0.000000
    22  C    0.045401  -0.000000
    23  C   -0.141206   0.000000
    24  S    0.153332   0.000000
    25  C    0.081483   0.000000
    26  C    0.006613  -0.000000
    27  C   -0.002046   0.000000
    28  C    0.092745   0.000000
    29  C    0.001155   0.000000
    30  C    0.009310  -0.000000
    31  C   -0.160125  -0.000000
    32  C    0.107483  -0.000000
    33  F   -0.121918   0.000000
    34  C    0.045577   0.000000
    35  C   -0.140666  -0.000000
    36  S    0.151619  -0.000000
    37  C    0.081862   0.000000
    38  C    0.010426  -0.000000
    39  C    0.003165   0.000000
    40  C    0.092993  -0.000000
    41  C   -0.003481  -0.000000
    42  C    0.005437  -0.000000
    43  C   -0.160776   0.000000
    44  C    0.107062  -0.000000
    45  F   -0.122136  -0.000000
    46  C    0.045822   0.000000
    47  C   -0.140225  -0.000000
    48  S    0.153619  -0.000000
    49  C    0.080209  -0.000000
    50  C    0.008150  -0.000000
    51  C    0.002871   0.000000
    52  C    0.099041  -0.000000
    53  C    0.000629   0.000000
    54  C    0.005539   0.000000
    55  C   -0.171549  -0.000000
    56  C    0.092440   0.000000
    57  F   -0.122478   0.000000
    58  C    0.073428   0.000000
    59  C   -0.117329  -0.000000
    60  S    0.159498   0.000000
    61  H   -0.018000  -0.000000
    62  H   -0.016362   0.000000
    63  H   -0.017365  -0.000000
    64  H   -0.020476   0.000000
    65  H   -0.015524   0.000000
    66  H   -0.005605  -0.000000
    67  H   -0.015723   0.000000
    68  H   -0.014071  -0.000000
    69  H   -0.018586   0.000000
    70  H   -0.022918   0.000000
    71  H   -0.005003   0.000000
    72  H   -0.023020  -0.000000
    73  H   -0.013699   0.000000
    74  H   -0.017672  -0.000000
    75  H   -0.014883  -0.000000
    76  H   -0.003986  -0.000000
    77  H   -0.022285  -0.000000
    78  H   -0.017713   0.000000
    79  H   -0.013152   0.000000
    80  H   -0.015232  -0.000000
    81  H   -0.004516  -0.000000
    82  H   -0.014541   0.000000
    83  H   -0.016809   0.000000
    84  H   -0.013278   0.000000
    85  H   -0.022576  -0.000000
    86  H    0.002352  -0.000000
    87  H    0.030630  -0.000000
 Sum of Mulliken charges =  -0.00000  -0.00000

 Dipole moment (field-independent basis, Debye):
    X=             -6.1385    Y=              0.1087    Z=             -0.1720  Tot=              6.1418
 Quadrupole moment (field-independent basis, Debye-Ang):
   XX=           -293.6246   YY=           -351.2673   ZZ=           -385.8041
   XY=            -20.8997   XZ=             -6.2623   YZ=             -4.7289

 Normal termination of Gaussian 16 at Thu Jul 23 19:18:16 2020.
