 Gaussian 16, Revision A.03,
 Gaussian 16:  EM64L-G16RevA.03 25-Dec-2016

 ---------------------------------------------------------------
 #P uLC-wPBE/cc-pVDZ iop(3/107=0385300000, 3/108=0385300000) opt
 ---------------------------------------------------------------

 -----------------
 H17 C40 S5 N10 F5
 -----------------
 Symbolic Z-matrix:
 Charge =  0 Multiplicity = 1

 SCF Done:  E(ULC-wPBE) =  -4569.73012663     A.U. after   18 cycles
 SCF Done:  E(ULC-wPBE) =  -4569.81379505     A.U. after   14 cycles
 SCF Done:  E(ULC-wPBE) =  -4569.88045042     A.U. after   15 cycles
 SCF Done:  E(ULC-wPBE) =  -4569.89600785     A.U. after   14 cycles
 SCF Done:  E(ULC-wPBE) =  -4569.89815164     A.U. after   13 cycles
 SCF Done:  E(ULC-wPBE) =  -4569.89821322     A.U. after   13 cycles
 SCF Done:  E(ULC-wPBE) =  -4569.89883602     A.U. after   12 cycles
 SCF Done:  E(ULC-wPBE) =  -4569.89899251     A.U. after   13 cycles
 SCF Done:  E(ULC-wPBE) =  -4569.89911513     A.U. after   12 cycles
 SCF Done:  E(ULC-wPBE) =  -4569.89914431     A.U. after   12 cycles
 SCF Done:  E(ULC-wPBE) =  -4569.89915602     A.U. after   11 cycles
 SCF Done:  E(ULC-wPBE) =  -4569.89915953     A.U. after   11 cycles
 SCF Done:  E(ULC-wPBE) =  -4569.89916053     A.U. after    9 cycles
 SCF Done:  E(ULC-wPBE) =  -4569.89916127     A.U. after    9 cycles
 SCF Done:  E(ULC-wPBE) =  -4569.89916165     A.U. after    8 cycles
 SCF Done:  E(ULC-wPBE) =  -4569.89916163     A.U. after    8 cycles
 SCF Done:  E(ULC-wPBE) =  -4569.89916166     A.U. after    7 cycles
 Optimization completed.
    -- Stationary point found.

                         Standard orientation:
 ---------------------------------------------------------------------
 Center     Atomic      Atomic             Coordinates (Angstroms)
 Number     Number       Type             X           Y           Z
 ---------------------------------------------------------------------
      1          6           0       18.351379   -2.387336   -1.384149
      2          6           0       17.148980   -3.084802   -1.327082
      3          7           0       15.995350   -2.508339   -1.022132
      4          6           0       15.966364   -1.201079   -0.755368
      5          6           0       17.130287   -0.433713   -0.792875
      6          9           0       17.105896    0.869789   -0.528746
      7          6           0       18.338413   -1.029921   -1.110159
      8          6           0       14.638097   -0.653863   -0.428708
      9          7           0       14.363274    0.579546   -0.129006
     10          6           0       13.028866    0.723355    0.113448
     11          6           0       12.268491   -0.407384   -0.001991
     12         16           0       13.282612   -1.730405   -0.440464
     13          6           0       10.821367   -0.545621    0.203945
     14          6           0        9.953280    0.514795   -0.084214
     15          7           0        8.646341    0.458395    0.102511
     16          6           0        8.091054   -0.659149    0.576078
     17          6           0        8.879375   -1.769968    0.873282
     18          9           0        8.341676   -2.892495    1.340613
     19          6           0       10.248390   -1.716035    0.692087
     20          6           0        6.630030   -0.620454    0.745995
     21          7           0        5.881107   -1.580660    1.198298
     22          6           0        4.573682   -1.193827    1.218149
     23          6           0        4.311459    0.073593    0.776172
     24         16           0        5.788779    0.827380    0.306867
     25          6           0        3.010011    0.747934    0.691960
     26          6           0        1.842139    0.018998    0.435775
     27          7           0        0.640827    0.565762    0.372055
     28          6           0        0.500571    1.882097    0.542348
     29          6           0        1.613260    2.686645    0.784381
     30          9           0        1.491996    4.000155    0.950810
     31          6           0        2.872032    2.121946    0.864129
     32          6           0       -0.876585    2.392016    0.450780
     33          7           0       -1.251284    3.627920    0.593022
     34          6           0       -2.601961    3.733818    0.442379
     35          6           0       -3.275191    2.572400    0.180682
     36         16           0       -2.150145    1.268019    0.118549
     37          6           0       -4.718723    2.393150   -0.018548
     38          6           0       -5.371183    1.205515    0.331705
     39          7           0       -6.669651    1.012637    0.177327
     40          6           0       -7.428988    1.984837   -0.330986
     41          6           0       -6.861448    3.202976   -0.704712
     42          9           0       -7.601944    4.179872   -1.220123
     43          6           0       -5.503639    3.409370   -0.556402
     44          6           0       -8.860654    1.671961   -0.463011
     45          7           0       -9.782600    2.464094   -0.921273
     46          6           0      -10.996254    1.842414   -0.899822
     47          6           0      -11.010781    0.560497   -0.423489
     48         16           0       -9.410226    0.104431    0.024197
     49          6           0      -12.164237   -0.337797   -0.285139
     50          6           0      -13.234486   -0.271319   -1.184249
     51          7           0      -14.309534   -1.035764   -1.097469
     52          6           0      -14.405655   -1.939464   -0.120312
     53          6           0      -13.375852   -2.084790    0.809465
     54          9           0      -13.449510   -2.982690    1.787828
     55          6           0      -12.253689   -1.282488    0.733101
     56          6           0      -15.640424   -2.741532   -0.108467
     57          7           0      -15.943881   -3.667554    0.750222
     58          6           0      -17.168291   -4.202657    0.458262
     59          6           0      -17.795995   -3.677883   -0.629207
     60         16           0      -16.828885   -2.456381   -1.335980
     61          1           0       19.280004   -2.899708   -1.638833
     62          1           0       17.112965   -4.157537   -1.536372
     63          1           0       19.240970   -0.417578   -1.135533
     64          1           0       12.645434    1.701953    0.404103
     65          1           0       10.343288    1.447948   -0.499697
     66          1           0       10.846828   -2.591684    0.949821
     67          1           0        3.821757   -1.886084    1.598305
     68          1           0        1.893399   -1.059115    0.260942
     69          1           0        3.725405    2.769380    1.073700
     70          1           0       -3.072594    4.710891    0.557707
     71          1           0       -4.808384    0.374409    0.767603
     72          1           0       -5.078343    4.359590   -0.881781
     73          1           0      -11.878815    2.390021   -1.231848
     74          1           0      -13.205698    0.429908   -2.022892
     75          1           0      -11.470692   -1.402764    1.484024
     76          1           0      -17.567054   -4.996330    1.090185
     77          1           0      -18.766219   -3.949339   -1.039849
 ---------------------------------------------------------------------

 The electronic state is 1-A.
 Alpha  occ. eigenvalues --  -88.33404 -88.33388 -88.33260 -88.32941 -88.31852
 Alpha  occ. eigenvalues --  -24.51405 -24.51311 -24.51292 -24.51119 -24.50485
 Alpha  occ. eigenvalues --  -14.24079 -14.23972 -14.23843 -14.23768 -14.23113
 Alpha  occ. eigenvalues --  -14.22520 -14.22495 -14.22385 -14.22086 -14.21026
 Alpha  occ. eigenvalues --  -10.22817 -10.22719 -10.22633 -10.22517 -10.21879
 Alpha  occ. eigenvalues --  -10.19826 -10.19825 -10.19682 -10.19377 -10.18714
 Alpha  occ. eigenvalues --  -10.18689 -10.18618 -10.18431 -10.18249 -10.17804
 Alpha  occ. eigenvalues --  -10.17311 -10.17220 -10.17042 -10.17040 -10.17037
 Alpha  occ. eigenvalues --  -10.17008 -10.17003 -10.16918 -10.16895 -10.16741
 Alpha  occ. eigenvalues --  -10.16543 -10.16486 -10.16167 -10.15911 -10.15873
 Alpha  occ. eigenvalues --  -10.15871 -10.15787 -10.15770 -10.15763 -10.15605
 Alpha  occ. eigenvalues --  -10.15370 -10.15206 -10.15077 -10.14471 -10.14159
 Alpha  occ. eigenvalues --   -7.94143  -7.94128  -7.93997  -7.93682  -7.92604
 Alpha  occ. eigenvalues --   -5.95694  -5.95679  -5.95548  -5.95233  -5.95179
 Alpha  occ. eigenvalues --   -5.95164  -5.95032  -5.94826  -5.94810  -5.94718
 Alpha  occ. eigenvalues --   -5.94680  -5.94366  -5.94143  -5.93629  -5.93308
 Alpha  occ. eigenvalues --   -1.36464  -1.36368  -1.36326  -1.36171  -1.35533
 Alpha  occ. eigenvalues --   -1.13694  -1.13527  -1.13420  -1.13187  -1.12254
 Alpha  occ. eigenvalues --   -1.11705  -1.11442  -1.11253  -1.11124  -1.10251
 Alpha  occ. eigenvalues --   -1.00468  -1.00278  -1.00061  -0.99618  -0.97691
 Alpha  occ. eigenvalues --   -0.95907  -0.95674  -0.95358  -0.95098  -0.95001
 Alpha  occ. eigenvalues --   -0.94868  -0.94510  -0.94285  -0.94183  -0.93554
 Alpha  occ. eigenvalues --   -0.91061  -0.89929  -0.88832  -0.87458  -0.86540
 Alpha  occ. eigenvalues --   -0.83108  -0.82003  -0.81113  -0.80496  -0.79898
 Alpha  occ. eigenvalues --   -0.79706  -0.79363  -0.79185  -0.79112  -0.78671
 Alpha  occ. eigenvalues --   -0.73441  -0.73007  -0.72845  -0.72741  -0.72565
 Alpha  occ. eigenvalues --   -0.72318  -0.72120  -0.71744  -0.71564  -0.70936
 Alpha  occ. eigenvalues --   -0.68779  -0.68291  -0.67940  -0.67054  -0.66762
 Alpha  occ. eigenvalues --   -0.66669  -0.66332  -0.66158  -0.66085  -0.65494
 Alpha  occ. eigenvalues --   -0.64443  -0.64006  -0.63797  -0.63613  -0.62945
 Alpha  occ. eigenvalues --   -0.62777  -0.62280  -0.62181  -0.62093  -0.62018
 Alpha  occ. eigenvalues --   -0.61552  -0.61297  -0.60563  -0.59832  -0.59117
 Alpha  occ. eigenvalues --   -0.57705  -0.57405  -0.57292  -0.57250  -0.56944
 Alpha  occ. eigenvalues --   -0.56414  -0.56318  -0.56167  -0.55974  -0.55784
 Alpha  occ. eigenvalues --   -0.55351  -0.55309  -0.55078  -0.55019  -0.54734
 Alpha  occ. eigenvalues --   -0.54632  -0.54397  -0.54221  -0.54113  -0.53950
 Alpha  occ. eigenvalues --   -0.53895  -0.53640  -0.53567  -0.53307  -0.52787
 Alpha  occ. eigenvalues --   -0.52265  -0.51738  -0.51335  -0.50979  -0.50632
 Alpha  occ. eigenvalues --   -0.50368  -0.49360  -0.48959  -0.48663  -0.48579
 Alpha  occ. eigenvalues --   -0.47648  -0.46391  -0.45452  -0.44366  -0.43310
 Alpha  occ. eigenvalues --   -0.42352  -0.40927  -0.40724  -0.40498  -0.40294
 Alpha  occ. eigenvalues --   -0.40208  -0.40171  -0.40007  -0.39814  -0.39634
 Alpha  occ. eigenvalues --   -0.39612  -0.39466  -0.39435  -0.39374  -0.39252
 Alpha  occ. eigenvalues --   -0.39074  -0.39044  -0.38893  -0.38768  -0.38197
 Alpha  occ. eigenvalues --   -0.38009  -0.36197  -0.34809  -0.33296  -0.31930
 Alpha  occ. eigenvalues --   -0.30975
 Alpha virt. eigenvalues --   -0.03244  -0.02090  -0.00598   0.00969   0.02073
 Alpha virt. eigenvalues --    0.04135   0.04187   0.04440   0.04605   0.04940
 Alpha virt. eigenvalues --    0.06145   0.07560   0.09009   0.10334   0.10902

  Beta  occ. eigenvalues --  -88.33404 -88.33388 -88.33260 -88.32941 -88.31852
  Beta  occ. eigenvalues --  -24.51405 -24.51311 -24.51292 -24.51119 -24.50485
  Beta  occ. eigenvalues --  -14.24079 -14.23972 -14.23843 -14.23768 -14.23113
  Beta  occ. eigenvalues --  -14.22520 -14.22495 -14.22385 -14.22086 -14.21026
  Beta  occ. eigenvalues --  -10.22817 -10.22719 -10.22633 -10.22517 -10.21879
  Beta  occ. eigenvalues --  -10.19826 -10.19825 -10.19682 -10.19377 -10.18714
  Beta  occ. eigenvalues --  -10.18689 -10.18618 -10.18431 -10.18249 -10.17804
  Beta  occ. eigenvalues --  -10.17311 -10.17220 -10.17042 -10.17040 -10.17037
  Beta  occ. eigenvalues --  -10.17008 -10.17003 -10.16918 -10.16895 -10.16741
  Beta  occ. eigenvalues --  -10.16543 -10.16486 -10.16167 -10.15911 -10.15873
  Beta  occ. eigenvalues --  -10.15871 -10.15787 -10.15770 -10.15763 -10.15605
  Beta  occ. eigenvalues --  -10.15370 -10.15206 -10.15077 -10.14471 -10.14159
  Beta  occ. eigenvalues --   -7.94143  -7.94128  -7.93997  -7.93682  -7.92604
  Beta  occ. eigenvalues --   -5.95694  -5.95679  -5.95548  -5.95233  -5.95179
  Beta  occ. eigenvalues --   -5.95164  -5.95032  -5.94826  -5.94810  -5.94718
  Beta  occ. eigenvalues --   -5.94680  -5.94366  -5.94143  -5.93629  -5.93308
  Beta  occ. eigenvalues --   -1.36464  -1.36368  -1.36326  -1.36171  -1.35533
  Beta  occ. eigenvalues --   -1.13694  -1.13527  -1.13420  -1.13187  -1.12254
  Beta  occ. eigenvalues --   -1.11705  -1.11442  -1.11253  -1.11124  -1.10251
  Beta  occ. eigenvalues --   -1.00468  -1.00278  -1.00061  -0.99618  -0.97691
  Beta  occ. eigenvalues --   -0.95907  -0.95674  -0.95358  -0.95098  -0.95001
  Beta  occ. eigenvalues --   -0.94868  -0.94510  -0.94285  -0.94183  -0.93554
  Beta  occ. eigenvalues --   -0.91061  -0.89929  -0.88832  -0.87458  -0.86540
  Beta  occ. eigenvalues --   -0.83108  -0.82003  -0.81113  -0.80496  -0.79898
  Beta  occ. eigenvalues --   -0.79706  -0.79363  -0.79185  -0.79112  -0.78671
  Beta  occ. eigenvalues --   -0.73441  -0.73007  -0.72845  -0.72741  -0.72565
  Beta  occ. eigenvalues --   -0.72318  -0.72120  -0.71744  -0.71564  -0.70936
  Beta  occ. eigenvalues --   -0.68779  -0.68291  -0.67940  -0.67054  -0.66762
  Beta  occ. eigenvalues --   -0.66669  -0.66332  -0.66158  -0.66085  -0.65494
  Beta  occ. eigenvalues --   -0.64443  -0.64006  -0.63797  -0.63613  -0.62945
  Beta  occ. eigenvalues --   -0.62777  -0.62280  -0.62181  -0.62093  -0.62018
  Beta  occ. eigenvalues --   -0.61552  -0.61297  -0.60563  -0.59832  -0.59117
  Beta  occ. eigenvalues --   -0.57705  -0.57405  -0.57292  -0.57250  -0.56944
  Beta  occ. eigenvalues --   -0.56414  -0.56318  -0.56167  -0.55974  -0.55784
  Beta  occ. eigenvalues --   -0.55351  -0.55309  -0.55078  -0.55019  -0.54734
  Beta  occ. eigenvalues --   -0.54632  -0.54397  -0.54221  -0.54113  -0.53950
  Beta  occ. eigenvalues --   -0.53895  -0.53640  -0.53567  -0.53307  -0.52787
  Beta  occ. eigenvalues --   -0.52265  -0.51738  -0.51335  -0.50979  -0.50632
  Beta  occ. eigenvalues --   -0.50368  -0.49360  -0.48959  -0.48663  -0.48579
  Beta  occ. eigenvalues --   -0.47648  -0.46391  -0.45452  -0.44366  -0.43310
  Beta  occ. eigenvalues --   -0.42352  -0.40927  -0.40724  -0.40498  -0.40294
  Beta  occ. eigenvalues --   -0.40208  -0.40171  -0.40007  -0.39814  -0.39634
  Beta  occ. eigenvalues --   -0.39612  -0.39466  -0.39435  -0.39374  -0.39252
  Beta  occ. eigenvalues --   -0.39074  -0.39044  -0.38893  -0.38768  -0.38197
  Beta  occ. eigenvalues --   -0.38009  -0.36197  -0.34809  -0.33296  -0.31930
  Beta  occ. eigenvalues --   -0.30975
  Beta virt. eigenvalues --   -0.03244  -0.02090  -0.00598   0.00969   0.02073
  Beta virt. eigenvalues --    0.04135   0.04187   0.04440   0.04605   0.04940
  Beta virt. eigenvalues --    0.06145   0.07560   0.09009   0.10334   0.10902

 Mulliken charges and spin densities:
               1          2
     1  C   -0.042471   0.000000
     2  C    0.083709  -0.000000
     3  N   -0.210121   0.000000
     4  C    0.045005  -0.000000
     5  C    0.130841   0.000000
     6  F   -0.096527  -0.000000
     7  C    0.046407  -0.000000
     8  C   -0.004757   0.000000
     9  N   -0.172422   0.000000
    10  C    0.110475  -0.000000
    11  C   -0.226311   0.000000
    12  S    0.206264  -0.000000
    13  C   -0.034454  -0.000000
    14  C    0.094502  -0.000000
    15  N   -0.207267   0.000000
    16  C    0.047162   0.000000
    17  C    0.142097   0.000000
    18  F   -0.093727  -0.000000
    19  C    0.057008  -0.000000
    20  C   -0.008412  -0.000000
    21  N   -0.173690  -0.000000
    22  C    0.110873  -0.000000
    23  C   -0.226509  -0.000000
    24  S    0.207452   0.000000
    25  C   -0.034867   0.000000
    26  C    0.094668  -0.000000
    27  N   -0.206964  -0.000000
    28  C    0.047223  -0.000000
    29  C    0.142012   0.000000
    30  F   -0.093891   0.000000
    31  C    0.057011  -0.000000
    32  C   -0.009016   0.000000
    33  N   -0.173632  -0.000000
    34  C    0.109135  -0.000000
    35  C   -0.227624   0.000000
    36  S    0.210956  -0.000000
    37  C   -0.028650   0.000000
    38  C    0.094129   0.000000
    39  N   -0.206836  -0.000000
    40  C    0.047555  -0.000000
    41  C    0.144133  -0.000000
    42  F   -0.094445   0.000000
    43  C    0.050659  -0.000000
    44  C   -0.010184  -0.000000
    45  N   -0.174189   0.000000
    46  C    0.109737  -0.000000
    47  C   -0.224948  -0.000000
    48  S    0.207284   0.000000
    49  C   -0.036337   0.000000
    50  C    0.091921  -0.000000
    51  N   -0.204223  -0.000000
    52  C    0.054932  -0.000000
    53  C    0.139156   0.000000
    54  F   -0.095132  -0.000000
    55  C    0.055406  -0.000000
    56  C   -0.029599   0.000000
    57  N   -0.180628  -0.000000
    58  C    0.099117   0.000000
    59  C   -0.188079   0.000000
    60  S    0.198130   0.000000
    61  H    0.025207   0.000000
    62  H    0.029822   0.000000
    63  H    0.035217   0.000000
    64  H    0.025228   0.000000
    65  H    0.026258  -0.000000
    66  H    0.031743   0.000000
    67  H    0.025580  -0.000000
    68  H    0.026380   0.000000
    69  H    0.031575  -0.000000
    70  H    0.023611   0.000000
    71  H    0.030784  -0.000000
    72  H    0.026049  -0.000000
    73  H    0.024763   0.000000
    74  H    0.024294   0.000000
    75  H    0.029696  -0.000000
    76  H    0.018909  -0.000000
    77  H    0.045841  -0.000000
 Sum of Mulliken charges =  -0.00000   0.00000

 Dipole moment (field-independent basis, Debye):
    X=              8.7263    Y=             -1.1081    Z=             -1.1306  Tot=              8.8687
 Quadrupole moment (field-independent basis, Debye-Ang):
   XX=           -243.1041   YY=           -366.0274   ZZ=           -369.0803
   XY=            -27.7952   XZ=             -7.3527   YZ=              5.0137

 Normal termination of Gaussian 16 at Thu Jul 23 15:51:31 2020.
