 Gaussian 16, Revision A.03,
 Gaussian 16:  EM64L-G16RevA.03 25-Dec-2016

 ---------------------------------------------------------------
 #P uLC-wPBE/cc-pVDZ iop(3/107=0075900000, 3/108=0075900000) opt
 ---------------------------------------------------------------

 --------------
 H22 C40 S5 N10
 --------------
 Symbolic Z-matrix:
 Charge =  0 Multiplicity = 1

 SCF Done:  E(ULC-wPBE) =  -4073.14603085     A.U. after   17 cycles
 SCF Done:  E(ULC-wPBE) =  -4073.22566021     A.U. after   13 cycles
 SCF Done:  E(ULC-wPBE) =  -4073.28640627     A.U. after   15 cycles
 SCF Done:  E(ULC-wPBE) =  -4073.30075563     A.U. after   15 cycles
 SCF Done:  E(ULC-wPBE) =  -4073.30404211     A.U. after   15 cycles
 SCF Done:  E(ULC-wPBE) =  -4073.30447176     A.U. after   14 cycles
 SCF Done:  E(ULC-wPBE) =  -4073.30471015     A.U. after   13 cycles
 SCF Done:  E(ULC-wPBE) =  -4073.30478270     A.U. after   13 cycles
 SCF Done:  E(ULC-wPBE) =  -4073.30480567     A.U. after   13 cycles
 SCF Done:  E(ULC-wPBE) =  -4073.30482102     A.U. after   13 cycles
 SCF Done:  E(ULC-wPBE) =  -4073.30482847     A.U. after   11 cycles
 SCF Done:  E(ULC-wPBE) =  -4073.30483078     A.U. after   10 cycles
 SCF Done:  E(ULC-wPBE) =  -4073.30483182     A.U. after   10 cycles
 SCF Done:  E(ULC-wPBE) =  -4073.30483286     A.U. after   11 cycles
 SCF Done:  E(ULC-wPBE) =  -4073.30483301     A.U. after   11 cycles
 SCF Done:  E(ULC-wPBE) =  -4073.30483316     A.U. after    8 cycles
 SCF Done:  E(ULC-wPBE) =  -4073.30483335     A.U. after    7 cycles
 SCF Done:  E(ULC-wPBE) =  -4073.30483332     A.U. after    6 cycles
 Optimization completed.
    -- Stationary point found.

                         Standard orientation:
 ---------------------------------------------------------------------
 Center     Atomic      Atomic             Coordinates (Angstroms)
 Number     Number       Type             X           Y           Z
 ---------------------------------------------------------------------
      1          6           0       18.146563    3.374546    0.073613
      2          6           0       16.827416    3.710196   -0.261840
      3          7           0       15.808094    2.845390   -0.145105
      4          6           0       16.128465    1.611654    0.320132
      5          7           0       17.362527    1.174441    0.674377
      6          6           0       18.353838    2.069439    0.544203
      7          6           0       15.028550    0.658261    0.450610
      8          6           0       15.071050   -0.656305    0.898523
      9          6           0       13.801615   -1.283477    0.889318
     10          6           0       12.777126   -0.451231    0.434965
     11         16           0       13.405590    1.132207    0.005916
     12          6           0       11.357850   -0.763286    0.299641
     13          6           0       10.880097   -2.094925    0.218520
     14          7           0        9.587305   -2.412957    0.112227
     15          6           0        8.718228   -1.371677    0.065473
     16          7           0        9.046548   -0.056061    0.117067
     17          6           0       10.346551    0.225191    0.239275
     18          6           0        7.301041   -1.693104   -0.052646
     19          6           0        6.700254   -2.944579   -0.131919
     20          6           0        5.290653   -2.873959   -0.237425
     21          6           0        4.800414   -1.566575   -0.241270
     22         16           0        6.114891   -0.408860   -0.103986
     23          6           0        3.412838   -1.126323   -0.339658
     24          6           0        2.324352   -1.980368   -0.037111
     25          7           0        1.046184   -1.606254   -0.136326
     26          6           0        0.820741   -0.327930   -0.534349
     27          7           0        1.770936    0.591516   -0.837960
     28          6           0        3.037477    0.178647   -0.743079
     29          6           0       -0.570740    0.093503   -0.640249
     30          6           0       -1.073312    1.331108   -1.026561
     31          6           0       -2.487617    1.381022   -1.012162
     32          6           0       -3.080363    0.180571   -0.615654
     33         16           0       -1.856630   -1.025484   -0.248002
     34          6           0       -4.502114   -0.123103   -0.492009
     35          6           0       -5.018620   -1.442079   -0.488287
     36          7           0       -6.317644   -1.731291   -0.377564
     37          6           0       -7.157649   -0.670241   -0.278798
     38          7           0       -6.792241    0.637552   -0.269778
     39          6           0       -5.484380    0.889390   -0.366395
     40          6           0       -8.582233   -0.957145   -0.168061
     41          6           0       -9.218086   -2.193688   -0.158531
     42          6           0      -10.624354   -2.090148   -0.035602
     43          6           0      -11.077651   -0.772290    0.048916
     44         16           0       -9.730841    0.353849   -0.017540
     45          6           0      -12.452446   -0.299681    0.178243
     46          6           0      -13.495280   -1.127684    0.661890
     47          7           0      -14.765148   -0.730349    0.775447
     48          6           0      -15.026556    0.551509    0.411728
     49          7           0      -14.117400    1.447457   -0.050542
     50          6           0      -12.860421    1.011229   -0.165062
     51          6           0      -16.405996    1.009254    0.530238
     52          6           0      -17.516346    0.302400    0.975812
     53          6           0      -18.708456    1.077180    0.954539
     54          6           0      -18.493512    2.364991    0.493300
     55         16           0      -16.833313    2.647669    0.079488
     56          1           0       18.971181    4.092728   -0.026180
     57          1           0       16.572065    4.714534   -0.640356
     58          1           0       19.361196    1.722148    0.830918
     59          1           0       16.009444   -1.120429    1.223590
     60          1           0       13.628804   -2.311775    1.231572
     61          1           0       11.587424   -2.941551    0.226814
     62          1           0       10.609422    1.295881    0.302937
     63          1           0        7.293104   -3.866519   -0.118788
     64          1           0        4.643601   -3.754880   -0.335755
     65          1           0        2.502181   -3.010596    0.314742
     66          1           0        3.811201    0.920069   -1.010684
     67          1           0       -0.409152    2.154924   -1.312661
     68          1           0       -3.067728    2.263819   -1.309625
     69          1           0       -4.336157   -2.304564   -0.590345
     70          1           0       -5.191152    1.952166   -0.329071
     71          1           0       -8.653026   -3.128836   -0.247528
     72          1           0      -11.300312   -2.954708   -0.035379
     73          1           0      -13.280774   -2.160513    0.985740
     74          1           0      -12.127566    1.736154   -0.561827
     75          1           0      -17.437824   -0.741524    1.301447
     76          1           0      -19.692422    0.704924    1.266749
     77          1           0      -19.226728    3.170570    0.373157
 ---------------------------------------------------------------------

 The electronic state is 1-A.
 Alpha  occ. eigenvalues --  -88.15677 -88.15572 -88.15415 -88.15127 -88.14409
 Alpha  occ. eigenvalues --  -14.06039 -14.06000 -14.05988 -14.05927 -14.05915
 Alpha  occ. eigenvalues --  -14.05825 -14.05704 -14.05613 -14.05176 -14.05146
 Alpha  occ. eigenvalues --  -10.02869 -10.02655 -10.02510 -10.02296 -10.01842
 Alpha  occ. eigenvalues --  -10.00426 -10.00407 -10.00405 -10.00354 -10.00291
 Alpha  occ. eigenvalues --  -10.00200 -10.00090 -10.00008  -9.99663  -9.99607
 Alpha  occ. eigenvalues --   -9.99563  -9.99468  -9.99308  -9.99023  -9.98564
 Alpha  occ. eigenvalues --   -9.98529  -9.98487  -9.98363  -9.98353  -9.98145
 Alpha  occ. eigenvalues --   -9.98074  -9.97705  -9.97243  -9.97188  -9.97138
 Alpha  occ. eigenvalues --   -9.96491  -9.96398  -9.96281  -9.96224  -9.96190
 Alpha  occ. eigenvalues --   -9.96024  -9.95926  -9.95771  -9.95062  -9.94975
 Alpha  occ. eigenvalues --   -7.75884  -7.75781  -7.75623  -7.75336  -7.74616
 Alpha  occ. eigenvalues --   -5.77973  -5.77871  -5.77714  -5.77534  -5.77432
 Alpha  occ. eigenvalues --   -5.77426  -5.77275  -5.77161  -5.77055  -5.76987
 Alpha  occ. eigenvalues --   -5.76897  -5.76695  -5.76610  -5.76253  -5.75919
 Alpha  occ. eigenvalues --   -0.95695  -0.95585  -0.95548  -0.95330  -0.94843
 Alpha  occ. eigenvalues --   -0.86692  -0.86538  -0.86465  -0.86385  -0.86307
 Alpha  occ. eigenvalues --   -0.86195  -0.86089  -0.85821  -0.85688  -0.84643
 Alpha  occ. eigenvalues --   -0.80458  -0.79799  -0.78968  -0.78032  -0.77409
 Alpha  occ. eigenvalues --   -0.74023  -0.73088  -0.72741  -0.72638  -0.72324
 Alpha  occ. eigenvalues --   -0.72065  -0.71324  -0.71095  -0.69971  -0.68679
 Alpha  occ. eigenvalues --   -0.66514  -0.65594  -0.65165  -0.64960  -0.64620
 Alpha  occ. eigenvalues --   -0.64507  -0.64010  -0.63706  -0.62819  -0.62063
 Alpha  occ. eigenvalues --   -0.56836  -0.56692  -0.56282  -0.56256  -0.55846
 Alpha  occ. eigenvalues --   -0.55701  -0.55420  -0.55122  -0.54819  -0.54252
 Alpha  occ. eigenvalues --   -0.52936  -0.52522  -0.52228  -0.51901  -0.51420
 Alpha  occ. eigenvalues --   -0.51213  -0.50990  -0.50851  -0.50681  -0.50322
 Alpha  occ. eigenvalues --   -0.49348  -0.48106  -0.47136  -0.46268  -0.45496
 Alpha  occ. eigenvalues --   -0.45158  -0.44765  -0.44500  -0.44333  -0.44251
 Alpha  occ. eigenvalues --   -0.43784  -0.42964  -0.42791  -0.42760  -0.42546
 Alpha  occ. eigenvalues --   -0.41940  -0.41720  -0.41556  -0.41429  -0.41304
 Alpha  occ. eigenvalues --   -0.40789  -0.40449  -0.40302  -0.40191  -0.40087
 Alpha  occ. eigenvalues --   -0.40021  -0.39627  -0.39522  -0.39272  -0.39233
 Alpha  occ. eigenvalues --   -0.39086  -0.39025  -0.38833  -0.38597  -0.38077
 Alpha  occ. eigenvalues --   -0.37850  -0.36053  -0.35953  -0.35780  -0.35493
 Alpha  occ. eigenvalues --   -0.34843  -0.34800  -0.34009  -0.33893  -0.33871
 Alpha  occ. eigenvalues --   -0.33846  -0.33664  -0.33211  -0.32690  -0.31687
 Alpha  occ. eigenvalues --   -0.31512  -0.31465  -0.31416  -0.31279  -0.30779
 Alpha  occ. eigenvalues --   -0.30582  -0.28041  -0.27955  -0.27793  -0.27528
 Alpha  occ. eigenvalues --   -0.27261  -0.26682  -0.26269  -0.26059  -0.25828
 Alpha  occ. eigenvalues --   -0.25758  -0.25572  -0.25075  -0.24455  -0.23112
 Alpha  occ. eigenvalues --   -0.22045
 Alpha virt. eigenvalues --   -0.08418  -0.07233  -0.05833  -0.04481  -0.04269
 Alpha virt. eigenvalues --   -0.04218  -0.04177  -0.03946  -0.03537  -0.02973
 Alpha virt. eigenvalues --   -0.00879   0.00411   0.01672   0.02833   0.03100

  Beta  occ. eigenvalues --  -88.15677 -88.15572 -88.15415 -88.15127 -88.14409
  Beta  occ. eigenvalues --  -14.06039 -14.06000 -14.05988 -14.05927 -14.05915
  Beta  occ. eigenvalues --  -14.05825 -14.05704 -14.05613 -14.05176 -14.05146
  Beta  occ. eigenvalues --  -10.02869 -10.02655 -10.02510 -10.02296 -10.01842
  Beta  occ. eigenvalues --  -10.00426 -10.00407 -10.00405 -10.00354 -10.00291
  Beta  occ. eigenvalues --  -10.00200 -10.00090 -10.00008  -9.99663  -9.99607
  Beta  occ. eigenvalues --   -9.99563  -9.99468  -9.99308  -9.99023  -9.98564
  Beta  occ. eigenvalues --   -9.98529  -9.98487  -9.98363  -9.98353  -9.98145
  Beta  occ. eigenvalues --   -9.98074  -9.97705  -9.97243  -9.97188  -9.97138
  Beta  occ. eigenvalues --   -9.96491  -9.96398  -9.96281  -9.96224  -9.96190
  Beta  occ. eigenvalues --   -9.96024  -9.95926  -9.95771  -9.95062  -9.94975
  Beta  occ. eigenvalues --   -7.75884  -7.75781  -7.75623  -7.75336  -7.74616
  Beta  occ. eigenvalues --   -5.77973  -5.77871  -5.77714  -5.77534  -5.77432
  Beta  occ. eigenvalues --   -5.77426  -5.77275  -5.77161  -5.77055  -5.76987
  Beta  occ. eigenvalues --   -5.76897  -5.76695  -5.76610  -5.76253  -5.75919
  Beta  occ. eigenvalues --   -0.95695  -0.95585  -0.95548  -0.95330  -0.94843
  Beta  occ. eigenvalues --   -0.86692  -0.86538  -0.86465  -0.86385  -0.86307
  Beta  occ. eigenvalues --   -0.86195  -0.86089  -0.85821  -0.85688  -0.84643
  Beta  occ. eigenvalues --   -0.80458  -0.79799  -0.78968  -0.78032  -0.77409
  Beta  occ. eigenvalues --   -0.74023  -0.73088  -0.72741  -0.72638  -0.72324
  Beta  occ. eigenvalues --   -0.72065  -0.71324  -0.71095  -0.69971  -0.68679
  Beta  occ. eigenvalues --   -0.66514  -0.65594  -0.65165  -0.64960  -0.64620
  Beta  occ. eigenvalues --   -0.64507  -0.64010  -0.63706  -0.62819  -0.62063
  Beta  occ. eigenvalues --   -0.56836  -0.56692  -0.56282  -0.56256  -0.55846
  Beta  occ. eigenvalues --   -0.55701  -0.55420  -0.55122  -0.54819  -0.54252
  Beta  occ. eigenvalues --   -0.52936  -0.52522  -0.52228  -0.51901  -0.51420
  Beta  occ. eigenvalues --   -0.51213  -0.50990  -0.50851  -0.50681  -0.50322
  Beta  occ. eigenvalues --   -0.49348  -0.48106  -0.47136  -0.46268  -0.45496
  Beta  occ. eigenvalues --   -0.45158  -0.44765  -0.44500  -0.44333  -0.44251
  Beta  occ. eigenvalues --   -0.43784  -0.42964  -0.42791  -0.42760  -0.42546
  Beta  occ. eigenvalues --   -0.41940  -0.41720  -0.41556  -0.41429  -0.41304
  Beta  occ. eigenvalues --   -0.40789  -0.40449  -0.40302  -0.40191  -0.40087
  Beta  occ. eigenvalues --   -0.40021  -0.39627  -0.39522  -0.39272  -0.39233
  Beta  occ. eigenvalues --   -0.39086  -0.39025  -0.38833  -0.38597  -0.38077
  Beta  occ. eigenvalues --   -0.37850  -0.36053  -0.35953  -0.35780  -0.35493
  Beta  occ. eigenvalues --   -0.34843  -0.34800  -0.34009  -0.33893  -0.33871
  Beta  occ. eigenvalues --   -0.33846  -0.33664  -0.33211  -0.32690  -0.31687
  Beta  occ. eigenvalues --   -0.31512  -0.31465  -0.31416  -0.31279  -0.30779
  Beta  occ. eigenvalues --   -0.30582  -0.28041  -0.27955  -0.27793  -0.27528
  Beta  occ. eigenvalues --   -0.27261  -0.26682  -0.26269  -0.26059  -0.25828
  Beta  occ. eigenvalues --   -0.25758  -0.25572  -0.25075  -0.24455  -0.23112
  Beta  occ. eigenvalues --   -0.22045
  Beta virt. eigenvalues --   -0.08418  -0.07233  -0.05833  -0.04481  -0.04269
  Beta virt. eigenvalues --   -0.04218  -0.04177  -0.03946  -0.03537  -0.02973
  Beta virt. eigenvalues --   -0.00879   0.00411   0.01672   0.02833   0.03100

 Mulliken charges and spin densities:
               1          2
     1  C   -0.052092  -0.000000
     2  C    0.119225   0.000000
     3  N   -0.200113  -0.000000
     4  C    0.180275   0.000000
     5  N   -0.186503  -0.000000
     6  C    0.117335   0.000000
     7  C   -0.141043  -0.000000
     8  C    0.079260   0.000000
     9  C    0.034980  -0.000000
    10  C   -0.152817   0.000000
    11  S    0.181376   0.000000
    12  C   -0.027486   0.000000
    13  C    0.122048  -0.000000
    14  N   -0.182968   0.000000
    15  C    0.179307  -0.000000
    16  N   -0.195398  -0.000000
    17  C    0.122330   0.000000
    18  C   -0.141321   0.000000
    19  C    0.078098   0.000000
    20  C    0.035729   0.000000
    21  C   -0.152473  -0.000000
    22  S    0.181474  -0.000000
    23  C   -0.027642   0.000000
    24  C    0.123919   0.000000
    25  N   -0.196395  -0.000000
    26  C    0.179124   0.000000
    27  N   -0.181804  -0.000000
    28  C    0.119922  -0.000000
    29  C   -0.141533  -0.000000
    30  C    0.078352   0.000000
    31  C    0.035739  -0.000000
    32  C   -0.152267   0.000000
    33  S    0.179708   0.000000
    34  C   -0.027918  -0.000000
    35  C    0.119562   0.000000
    36  N   -0.182094  -0.000000
    37  C    0.178843   0.000000
    38  N   -0.196245  -0.000000
    39  C    0.123670   0.000000
    40  C   -0.141994  -0.000000
    41  C    0.077509   0.000000
    42  C    0.035712  -0.000000
    43  C   -0.151717  -0.000000
    44  S    0.179426  -0.000000
    45  C   -0.028998   0.000000
    46  C    0.119445  -0.000000
    47  N   -0.183321  -0.000000
    48  C    0.190786  -0.000000
    49  N   -0.195564   0.000000
    50  C    0.119640  -0.000000
    51  C   -0.151384   0.000000
    52  C    0.048601  -0.000000
    53  C    0.075968   0.000000
    54  C   -0.122729  -0.000000
    55  S    0.182134   0.000000
    56  H   -0.005126   0.000000
    57  H    0.010498  -0.000000
    58  H    0.007715  -0.000000
    59  H   -0.016607  -0.000000
    60  H   -0.014963  -0.000000
    61  H   -0.000175   0.000000
    62  H    0.010993   0.000000
    63  H   -0.016765  -0.000000
    64  H   -0.014630  -0.000000
    65  H    0.001975   0.000000
    66  H    0.008771  -0.000000
    67  H   -0.016142  -0.000000
    68  H   -0.014606   0.000000
    69  H    0.007828   0.000000
    70  H    0.001828   0.000000
    71  H   -0.017159  -0.000000
    72  H   -0.015773  -0.000000
    73  H   -0.001605   0.000000
    74  H    0.009079   0.000000
    75  H   -0.016628  -0.000000
    76  H   -0.013536  -0.000000
    77  H    0.019349  -0.000000
 Sum of Mulliken charges =  -0.00000  -0.00000

 Dipole moment (field-independent basis, Debye):
    X=              7.5434    Y=             -0.0375    Z=             -0.0244  Tot=              7.5436
 Quadrupole moment (field-independent basis, Debye-Ang):
   XX=           -231.3944   YY=           -320.3660   ZZ=           -352.6372
   XY=             24.7371   XZ=              1.0676   YZ=             -4.5549

 Normal termination of Gaussian 16 at Sat Jul 25 12:27:15 2020.
