 Gaussian 16, Revision A.03,
 Gaussian 16:  EM64L-G16RevA.03 25-Dec-2016

 ---------------------------------------------------------------
 #P uLC-wPBE/cc-pVDZ iop(3/107=0435400000, 3/108=0435400000) opt
 ---------------------------------------------------------------

 --------------
 H17 C35 S5 N15
 --------------
 Symbolic Z-matrix:
 Charge =  0 Multiplicity = 1

 SCF Done:  E(ULC-wPBE) =  -4154.00041730     A.U. after   17 cycles
 SCF Done:  E(ULC-wPBE) =  -4154.08600401     A.U. after   13 cycles
 SCF Done:  E(ULC-wPBE) =  -4154.15477833     A.U. after   14 cycles
 SCF Done:  E(ULC-wPBE) =  -4154.17033332     A.U. after   14 cycles
 SCF Done:  E(ULC-wPBE) =  -4154.17232887     A.U. after   14 cycles
 SCF Done:  E(ULC-wPBE) =  -4154.17245634     A.U. after   13 cycles
 SCF Done:  E(ULC-wPBE) =  -4154.17269645     A.U. after   12 cycles
 SCF Done:  E(ULC-wPBE) =  -4154.17273941     A.U. after   12 cycles
 SCF Done:  E(ULC-wPBE) =  -4154.17275859     A.U. after   11 cycles
 SCF Done:  E(ULC-wPBE) =  -4154.17276364     A.U. after    9 cycles
 SCF Done:  E(ULC-wPBE) =  -4154.17276624     A.U. after   11 cycles
 SCF Done:  E(ULC-wPBE) =  -4154.17276706     A.U. after    9 cycles
 SCF Done:  E(ULC-wPBE) =  -4154.17276744     A.U. after    9 cycles
 SCF Done:  E(ULC-wPBE) =  -4154.17276767     A.U. after    8 cycles
 SCF Done:  E(ULC-wPBE) =  -4154.17276799     A.U. after    8 cycles
 SCF Done:  E(ULC-wPBE) =  -4154.17276799     A.U. after    7 cycles
 SCF Done:  E(ULC-wPBE) =  -4154.17276810     A.U. after    7 cycles
 SCF Done:  E(ULC-wPBE) =  -4154.17276801     A.U. after    7 cycles
 SCF Done:  E(ULC-wPBE) =  -4154.17276807     A.U. after    7 cycles
 Optimization completed.
    -- Stationary point found.

                         Standard orientation:
 ---------------------------------------------------------------------
 Center     Atomic      Atomic             Coordinates (Angstroms)
 Number     Number       Type             X           Y           Z
 ---------------------------------------------------------------------
      1          6           0      -17.142959    4.337915   -0.877469
      2          6           0      -15.883797    4.260606   -1.446923
      3          7           0      -14.978897    3.382300   -1.037478
      4          6           0      -15.346193    2.575125   -0.046795
      5          7           0      -16.518499    2.557135    0.572486
      6          6           0      -17.407930    3.443980    0.147593
      7          6           0      -14.319017    1.604871    0.389113
      8          7           0      -14.465770    0.735171    1.335917
      9          6           0      -13.330502   -0.001029    1.481625
     10          6           0      -12.302029    0.303708    0.636872
     11         16           0      -12.786667    1.586484   -0.399788
     12          6           0      -10.977765   -0.318824    0.572399
     13          6           0       -9.823958    0.385533    0.242205
     14          7           0       -8.630418   -0.182497    0.198522
     15          6           0       -8.574950   -1.476519    0.497319
     16          7           0       -9.599125   -2.254227    0.821714
     17          6           0      -10.785730   -1.671726    0.847599
     18          6           0       -7.229143   -2.082663    0.451284
     19          7           0       -6.958965   -3.321299    0.712035
     20          6           0       -5.624850   -3.552226    0.577974
     21          6           0       -4.861926   -2.481830    0.207891
     22         16           0       -5.876132   -1.107340    0.016629
     23          6           0       -3.413587   -2.441937   -0.006659
     24          6           0       -2.633914   -1.327123    0.286198
     25          7           0       -1.324836   -1.304609    0.099977
     26          6           0       -0.771466   -2.414681   -0.378057
     27          7           0       -1.404849   -3.535357   -0.697723
     28          6           0       -2.714616   -3.534211   -0.517833
     29          6           0        0.692669   -2.366457   -0.563799
     30          7           0        1.419128   -3.335678   -1.020327
     31          6           0        2.727060   -2.964106   -1.066187
     32          6           0        3.009957   -1.698501   -0.638135
     33         16           0        1.551778   -0.930804   -0.150094
     34          6           0        4.317439   -1.040909   -0.579202
     35          6           0        5.483893   -1.748201   -0.301736
     36          7           0        6.674161   -1.173421   -0.270519
     37          6           0        6.711563    0.135467   -0.502135
     38          7           0        5.672708    0.918479   -0.760298
     39          6           0        4.492670    0.323461   -0.800780
     40          6           0        8.052544    0.751647   -0.456696
     41          7           0        8.304660    2.004765   -0.661084
     42          6           0        9.639597    2.242128   -0.548026
     43          6           0       10.421549    1.162634   -0.250834
     44         16           0        9.424912   -0.229718   -0.104553
     45          6           0       11.875003    1.126852   -0.071854
     46          6           0       12.573868    2.194890    0.483311
     47          7           0       13.887787    2.188333    0.628192
     48          6           0       14.528344    1.092430    0.230096
     49          7           0       13.973934    0.008021   -0.296806
     50          6           0       12.660801    0.038891   -0.445530
     51          6           0       15.994457    1.108941    0.405823
     52          7           0       16.791797    0.143368    0.077504
     53          6           0       18.082003    0.477070    0.370155
     54          6           0       18.260786    1.705207    0.924316
     55         16           0       16.757197    2.493385    1.094803
     56          1           0      -17.883086    5.059948   -1.215723
     57          1           0      -15.584906    4.924883   -2.261181
     58          1           0      -18.377026    3.436303    0.652797
     59          1           0      -13.287857   -0.763066    2.258116
     60          1           0       -9.866314    1.453167    0.010295
     61          1           0      -11.637058   -2.313410    1.088722
     62          1           0       -5.234365   -4.546712    0.787484
     63          1           0       -3.085646   -0.418589    0.693592
     64          1           0       -3.245462   -4.445624   -0.804590
     65          1           0        3.464947   -3.665339   -1.452476
     66          1           0        5.450437   -2.818711   -0.085518
     67          1           0        3.634940    0.963061   -1.028181
     68          1           0       10.016116    3.249644   -0.716855
     69          1           0       12.046341    3.085138    0.834550
     70          1           0       12.202810   -0.848046   -0.893200
     71          1           0       18.878141   -0.232208    0.153077
     72          1           0       19.191631    2.171584    1.233628
 ---------------------------------------------------------------------

 The electronic state is 1-A.
 Alpha  occ. eigenvalues --  -88.36488 -88.36459 -88.36360 -88.36041 -88.34839
 Alpha  occ. eigenvalues --  -14.26796 -14.26710 -14.26500 -14.26497 -14.26220
 Alpha  occ. eigenvalues --  -14.26143 -14.25940 -14.25916 -14.25822 -14.25294
 Alpha  occ. eigenvalues --  -14.25281 -14.25263 -14.25184 -14.24894 -14.23731
 Alpha  occ. eigenvalues --  -10.24263 -10.24187 -10.24146 -10.23981 -10.23321
 Alpha  occ. eigenvalues --  -10.22333 -10.22281 -10.22205 -10.21896 -10.21886
 Alpha  occ. eigenvalues --  -10.21832 -10.21675 -10.21642 -10.21622 -10.21615
 Alpha  occ. eigenvalues --  -10.21446 -10.21397 -10.21089 -10.20896 -10.20690
 Alpha  occ. eigenvalues --  -10.20161 -10.20142 -10.20041 -10.19707 -10.19448
 Alpha  occ. eigenvalues --  -10.19388 -10.19202 -10.18807 -10.18806 -10.18689
 Alpha  occ. eigenvalues --  -10.18630 -10.18330 -10.17624 -10.17415 -10.16991
 Alpha  occ. eigenvalues --   -7.97351  -7.97320  -7.97221  -7.96903  -7.95715
 Alpha  occ. eigenvalues --   -5.98693  -5.98663  -5.98563  -5.98244  -5.98164
 Alpha  occ. eigenvalues --   -5.98133  -5.98033  -5.97823  -5.97793  -5.97715
 Alpha  occ. eigenvalues --   -5.97694  -5.97377  -5.97044  -5.96518  -5.96210
 Alpha  occ. eigenvalues --   -1.19149  -1.19029  -1.18818  -1.18778  -1.18118
 Alpha  occ. eigenvalues --   -1.15463  -1.15262  -1.15143  -1.14888  -1.13636
 Alpha  occ. eigenvalues --   -1.07768  -1.07692  -1.07491  -1.07453  -1.06839
 Alpha  occ. eigenvalues --   -1.03013  -1.02609  -1.02216  -1.01744  -0.99286
 Alpha  occ. eigenvalues --   -0.97639  -0.97400  -0.97017  -0.96760  -0.96462
 Alpha  occ. eigenvalues --   -0.94327  -0.93182  -0.91941  -0.90690  -0.89660
 Alpha  occ. eigenvalues --   -0.85815  -0.85065  -0.84441  -0.83967  -0.83585
 Alpha  occ. eigenvalues --   -0.83342  -0.83110  -0.82803  -0.82047  -0.81548
 Alpha  occ. eigenvalues --   -0.75278  -0.75139  -0.74735  -0.74415  -0.74126
 Alpha  occ. eigenvalues --   -0.73776  -0.73653  -0.73381  -0.73215  -0.72409
 Alpha  occ. eigenvalues --   -0.69649  -0.69218  -0.68920  -0.68637  -0.67556
 Alpha  occ. eigenvalues --   -0.67368  -0.66980  -0.66568  -0.66247  -0.65662
 Alpha  occ. eigenvalues --   -0.65563  -0.63611  -0.62760  -0.61997  -0.61899
 Alpha  occ. eigenvalues --   -0.61578  -0.61289  -0.61192  -0.60945  -0.60572
 Alpha  occ. eigenvalues --   -0.60046  -0.58414  -0.58321  -0.58197  -0.58007
 Alpha  occ. eigenvalues --   -0.57857  -0.57309  -0.56813  -0.56681  -0.56534
 Alpha  occ. eigenvalues --   -0.56440  -0.56233  -0.56199  -0.56113  -0.55568
 Alpha  occ. eigenvalues --   -0.55435  -0.55138  -0.55071  -0.55006  -0.54662
 Alpha  occ. eigenvalues --   -0.53388  -0.50944  -0.50835  -0.50765  -0.50298
 Alpha  occ. eigenvalues --   -0.49124  -0.47477  -0.46538  -0.46059  -0.45984
 Alpha  occ. eigenvalues --   -0.45796  -0.45781  -0.45659  -0.45562  -0.45366
 Alpha  occ. eigenvalues --   -0.45227  -0.45184  -0.45104  -0.44621  -0.43782
 Alpha  occ. eigenvalues --   -0.42375  -0.41464  -0.41365  -0.41264  -0.40997
 Alpha  occ. eigenvalues --   -0.40721  -0.40600  -0.40512  -0.40421  -0.39937
 Alpha  occ. eigenvalues --   -0.39639  -0.39303  -0.39222  -0.39103  -0.38967
 Alpha  occ. eigenvalues --   -0.38330  -0.37501  -0.36306  -0.34827  -0.33440
 Alpha  occ. eigenvalues --   -0.32512
 Alpha virt. eigenvalues --   -0.03063  -0.01915  -0.00430   0.01123   0.02329
 Alpha virt. eigenvalues --    0.02673   0.02757   0.02934   0.03076   0.03511
 Alpha virt. eigenvalues --    0.06342   0.07793   0.09237   0.10616   0.11398

  Beta  occ. eigenvalues --  -88.36488 -88.36459 -88.36360 -88.36041 -88.34839
  Beta  occ. eigenvalues --  -14.26796 -14.26710 -14.26500 -14.26497 -14.26220
  Beta  occ. eigenvalues --  -14.26143 -14.25940 -14.25916 -14.25822 -14.25294
  Beta  occ. eigenvalues --  -14.25281 -14.25263 -14.25184 -14.24894 -14.23731
  Beta  occ. eigenvalues --  -10.24263 -10.24187 -10.24146 -10.23981 -10.23321
  Beta  occ. eigenvalues --  -10.22333 -10.22281 -10.22205 -10.21896 -10.21886
  Beta  occ. eigenvalues --  -10.21832 -10.21675 -10.21642 -10.21622 -10.21615
  Beta  occ. eigenvalues --  -10.21446 -10.21397 -10.21089 -10.20896 -10.20690
  Beta  occ. eigenvalues --  -10.20161 -10.20142 -10.20041 -10.19707 -10.19448
  Beta  occ. eigenvalues --  -10.19388 -10.19202 -10.18807 -10.18806 -10.18689
  Beta  occ. eigenvalues --  -10.18630 -10.18330 -10.17624 -10.17415 -10.16991
  Beta  occ. eigenvalues --   -7.97351  -7.97320  -7.97221  -7.96903  -7.95715
  Beta  occ. eigenvalues --   -5.98693  -5.98663  -5.98563  -5.98244  -5.98164
  Beta  occ. eigenvalues --   -5.98133  -5.98033  -5.97823  -5.97793  -5.97715
  Beta  occ. eigenvalues --   -5.97694  -5.97377  -5.97044  -5.96518  -5.96210
  Beta  occ. eigenvalues --   -1.19149  -1.19029  -1.18818  -1.18778  -1.18118
  Beta  occ. eigenvalues --   -1.15463  -1.15262  -1.15143  -1.14888  -1.13636
  Beta  occ. eigenvalues --   -1.07768  -1.07692  -1.07491  -1.07453  -1.06839
  Beta  occ. eigenvalues --   -1.03013  -1.02609  -1.02216  -1.01744  -0.99286
  Beta  occ. eigenvalues --   -0.97639  -0.97400  -0.97017  -0.96760  -0.96462
  Beta  occ. eigenvalues --   -0.94327  -0.93182  -0.91941  -0.90690  -0.89660
  Beta  occ. eigenvalues --   -0.85815  -0.85065  -0.84441  -0.83967  -0.83585
  Beta  occ. eigenvalues --   -0.83342  -0.83110  -0.82803  -0.82047  -0.81548
  Beta  occ. eigenvalues --   -0.75278  -0.75139  -0.74735  -0.74415  -0.74126
  Beta  occ. eigenvalues --   -0.73776  -0.73653  -0.73381  -0.73215  -0.72409
  Beta  occ. eigenvalues --   -0.69649  -0.69218  -0.68920  -0.68637  -0.67556
  Beta  occ. eigenvalues --   -0.67368  -0.66980  -0.66568  -0.66247  -0.65662
  Beta  occ. eigenvalues --   -0.65563  -0.63611  -0.62760  -0.61997  -0.61899
  Beta  occ. eigenvalues --   -0.61578  -0.61289  -0.61192  -0.60945  -0.60572
  Beta  occ. eigenvalues --   -0.60046  -0.58414  -0.58321  -0.58197  -0.58007
  Beta  occ. eigenvalues --   -0.57857  -0.57309  -0.56813  -0.56681  -0.56534
  Beta  occ. eigenvalues --   -0.56440  -0.56233  -0.56199  -0.56113  -0.55568
  Beta  occ. eigenvalues --   -0.55435  -0.55138  -0.55071  -0.55006  -0.54662
  Beta  occ. eigenvalues --   -0.53388  -0.50944  -0.50835  -0.50765  -0.50298
  Beta  occ. eigenvalues --   -0.49124  -0.47477  -0.46538  -0.46059  -0.45984
  Beta  occ. eigenvalues --   -0.45796  -0.45781  -0.45659  -0.45562  -0.45366
  Beta  occ. eigenvalues --   -0.45227  -0.45184  -0.45104  -0.44621  -0.43782
  Beta  occ. eigenvalues --   -0.42375  -0.41464  -0.41365  -0.41264  -0.40997
  Beta  occ. eigenvalues --   -0.40721  -0.40600  -0.40512  -0.40421  -0.39937
  Beta  occ. eigenvalues --   -0.39639  -0.39303  -0.39222  -0.39103  -0.38967
  Beta  occ. eigenvalues --   -0.38330  -0.37501  -0.36306  -0.34827  -0.33440
  Beta  occ. eigenvalues --   -0.32512
  Beta virt. eigenvalues --   -0.03063  -0.01915  -0.00430   0.01123   0.02329
  Beta virt. eigenvalues --    0.02673   0.02757   0.02934   0.03076   0.03511
  Beta virt. eigenvalues --    0.06342   0.07793   0.09237   0.10616   0.11398

 Mulliken charges and spin densities:
               1          2
     1  C   -0.102049  -0.000000
     2  C    0.122328  -0.000000
     3  N   -0.221439  -0.000000
     4  C    0.177288   0.000000
     5  N   -0.171487  -0.000000
     6  C    0.115276   0.000000
     7  C   -0.023809  -0.000000
     8  N   -0.152192  -0.000000
     9  C    0.110037   0.000000
    10  C   -0.233417  -0.000000
    11  S    0.211132  -0.000000
    12  C   -0.107567   0.000000
    13  C    0.147405   0.000000
    14  N   -0.215640  -0.000000
    15  C    0.177700   0.000000
    16  N   -0.164659  -0.000000
    17  C    0.136241   0.000000
    18  C   -0.024276  -0.000000
    19  N   -0.152696  -0.000000
    20  C    0.110719   0.000000
    21  C   -0.233197  -0.000000
    22  S    0.212863   0.000000
    23  C   -0.108291   0.000000
    24  C    0.147592   0.000000
    25  N   -0.215216  -0.000000
    26  C    0.177929  -0.000000
    27  N   -0.164724   0.000000
    28  C    0.136369   0.000000
    29  C   -0.025026   0.000000
    30  N   -0.152941  -0.000000
    31  C    0.109816   0.000000
    32  C   -0.232757   0.000000
    33  S    0.215271  -0.000000
    34  C   -0.108956  -0.000000
    35  C    0.146398  -0.000000
    36  N   -0.214666   0.000000
    37  C    0.177958  -0.000000
    38  N   -0.164962   0.000000
    39  C    0.137365   0.000000
    40  C   -0.026327  -0.000000
    41  N   -0.153333  -0.000000
    42  C    0.108816   0.000000
    43  C   -0.231266  -0.000000
    44  S    0.214675   0.000000
    45  C   -0.109987  -0.000000
    46  C    0.143700   0.000000
    47  N   -0.212646  -0.000000
    48  C    0.182879   0.000000
    49  N   -0.165206  -0.000000
    50  C    0.135416   0.000000
    51  C   -0.043018  -0.000000
    52  N   -0.160675   0.000000
    53  C    0.096182  -0.000000
    54  C   -0.191522   0.000000
    55  S    0.201317  -0.000000
    56  H    0.033145   0.000000
    57  H    0.041468  -0.000000
    58  H    0.041804  -0.000000
    59  H    0.031304   0.000000
    60  H    0.041220  -0.000000
    61  H    0.038375   0.000000
    62  H    0.031701   0.000000
    63  H    0.041435   0.000000
    64  H    0.038315   0.000000
    65  H    0.030406   0.000000
    66  H    0.037854   0.000000
    67  H    0.041072   0.000000
    68  H    0.029565  -0.000000
    69  H    0.035942  -0.000000
    70  H    0.039561  -0.000000
    71  H    0.025668   0.000000
    72  H    0.052441   0.000000
 Sum of Mulliken charges =  -0.00000   0.00000

 Dipole moment (field-independent basis, Debye):
    X=             -7.6452    Y=              4.2309    Z=             -0.5144  Tot=              8.7530
 Quadrupole moment (field-independent basis, Debye-Ang):
   XX=           -257.9971   YY=           -329.0526   ZZ=           -343.0220
   XY=            -44.9104   XZ=             35.7791   YZ=             -5.2466

 Normal termination of Gaussian 16 at Fri Jul 24 19:54:04 2020.
