 Gaussian 16, Revision A.03,
 Gaussian 16:  EM64L-G16RevA.03 25-Dec-2016

 ---------------------------------------------------------------
 #P uLC-wPBE/cc-pVDZ iop(3/107=0387200000, 3/108=0387200000) opt
 ---------------------------------------------------------------

 -------------
 H20 C27 S6 O3
 -------------
 Symbolic Z-matrix:
 Charge =  0 Multiplicity = 1

 SCF Done:  E(ULC-wPBE) =  -3654.03132299     A.U. after   16 cycles
 SCF Done:  E(ULC-wPBE) =  -3654.08341367     A.U. after   14 cycles
 SCF Done:  E(ULC-wPBE) =  -3654.11248722     A.U. after   15 cycles
 SCF Done:  E(ULC-wPBE) =  -3654.11454639     A.U. after   14 cycles
 SCF Done:  E(ULC-wPBE) =  -3654.11574728     A.U. after   15 cycles
 SCF Done:  E(ULC-wPBE) =  -3654.11735952     A.U. after   15 cycles
 SCF Done:  E(ULC-wPBE) =  -3654.11857447     A.U. after   15 cycles
 SCF Done:  E(ULC-wPBE) =  -3654.11911320     A.U. after   12 cycles
 SCF Done:  E(ULC-wPBE) =  -3654.11928598     A.U. after   12 cycles
 SCF Done:  E(ULC-wPBE) =  -3654.11937070     A.U. after   12 cycles
 SCF Done:  E(ULC-wPBE) =  -3654.11944066     A.U. after   12 cycles
 SCF Done:  E(ULC-wPBE) =  -3654.11948725     A.U. after   12 cycles
 SCF Done:  E(ULC-wPBE) =  -3654.11950075     A.U. after   11 cycles
 SCF Done:  E(ULC-wPBE) =  -3654.11950838     A.U. after   11 cycles
 SCF Done:  E(ULC-wPBE) =  -3654.11951203     A.U. after   11 cycles
 SCF Done:  E(ULC-wPBE) =  -3654.11951389     A.U. after   10 cycles
 SCF Done:  E(ULC-wPBE) =  -3654.11951561     A.U. after   11 cycles
 SCF Done:  E(ULC-wPBE) =  -3654.11951595     A.U. after    9 cycles
 SCF Done:  E(ULC-wPBE) =  -3654.11951604     A.U. after    7 cycles
 SCF Done:  E(ULC-wPBE) =  -3654.11951610     A.U. after    6 cycles
 Optimization completed.    -- Stationary point found.

                         Standard orientation:
 ---------------------------------------------------------------------
 Center     Atomic      Atomic             Coordinates (Angstroms)
 Number     Number       Type             X           Y           Z
 ---------------------------------------------------------------------
      1          6           0       11.039041   -0.626060    0.836975
      2          6           0       10.441201   -1.773535    1.259596
      3          6           0        9.033578   -1.752039    1.063232
      4          6           0        8.585381   -0.587307    0.494446
      5         16           0        9.907054    0.490748    0.197527
      6          6           0        7.210131   -0.240844    0.164007
      7          6           0        6.726536    0.903840   -0.423005
      8          8           0        7.577102    1.895684   -0.771224
      9          6           0        7.024072    3.041947   -1.377687
     10          6           0        5.314170    0.896811   -0.609801
     11          6           0        4.735177   -0.257258   -0.157600
     12         16           0        5.908571   -1.326824    0.508981
     13          6           0        3.325361   -0.627999   -0.184474
     14          6           0        2.777286   -1.881287   -0.212456
     15          6           0        1.361027   -1.861821   -0.243162
     16          6           0        0.835189   -0.594460   -0.240930
     17         16           0        2.098410    0.587550   -0.184797
     18          6           0       -0.570359   -0.223949   -0.272862
     19          6           0       -1.130085    1.031891   -0.265857
     20          8           0       -0.335162    2.124327   -0.226359
     21          6           0       -0.965267    3.386189   -0.211863
     22          6           0       -2.553404    1.022261   -0.314198
     23          6           0       -3.063778   -0.246630   -0.354503
     24         16           0       -1.811859   -1.428116   -0.318735
     25          6           0       -4.462723   -0.652694   -0.415868
     26          6           0       -4.990162   -1.804055   -0.933496
     27          6           0       -6.402018   -1.857477   -0.828144
     28          6           0       -6.944334   -0.746640   -0.233740
     29         16           0       -5.701945    0.370585    0.216068
     30          6           0       -8.353244   -0.480605    0.018712
     31          6           0       -8.923807    0.607316    0.636182
     32          8           0       -8.142404    1.610720    1.095157
     33          6           0       -8.782157    2.687811    1.743085
     34          6           0      -10.347636    0.532410    0.716290
     35          6           0      -10.823578   -0.612746    0.155921
     36         16           0       -9.577521   -1.600668   -0.467591
     37          1           0       12.097031   -0.372381    0.865339
     38          1           0       10.982017   -2.611921    1.697597
     39          1           0        8.371477   -2.574804    1.334343
     40          1           0        7.862347    3.719391   -1.576624
     41          1           0        6.527324    2.794863   -2.330125
     42          1           0        6.305560    3.544794   -0.709946
     43          1           0        4.744589    1.696475   -1.079624
     44          1           0        3.373904   -2.793349   -0.230690
     45          1           0        0.746066   -2.761313   -0.274669
     46          1           0       -0.162081    4.130469   -0.167352
     47          1           0       -1.558742    3.550793   -1.125838
     48          1           0       -1.613149    3.502376    0.672045
     49          1           0       -3.181328    1.910757   -0.342412
     50          1           0       -4.384447   -2.583889   -1.395163
     51          1           0       -7.002451   -2.692460   -1.189439
     52          1           0       -7.988335    3.379736    2.046603
     53          1           0       -9.328143    2.351782    2.639544
     54          1           0       -9.476011    3.211401    1.065388
     55          1           0      -10.987053    1.288778    1.166702
     56          1           0      -11.861833   -0.928167    0.077658
 ---------------------------------------------------------------------

 The electronic state is 1-A.
 Alpha  occ. eigenvalues --  -88.32063 -88.31595 -88.31449 -88.31009 -88.30979
 Alpha  occ. eigenvalues --  -88.30058 -19.02037 -19.01672 -19.00996 -10.18541
 Alpha  occ. eigenvalues --  -10.18208 -10.17926 -10.17543 -10.17532 -10.16981
 Alpha  occ. eigenvalues --  -10.16416 -10.16021 -10.15805 -10.15568 -10.15557
 Alpha  occ. eigenvalues --  -10.15325 -10.15115 -10.14856 -10.14681 -10.14631
 Alpha  occ. eigenvalues --  -10.14062 -10.13109 -10.12708 -10.12526 -10.12160
 Alpha  occ. eigenvalues --  -10.11967 -10.11894 -10.11686 -10.11444 -10.10778
 Alpha  occ. eigenvalues --  -10.10590  -7.92811  -7.92338  -7.92140  -7.91752
 Alpha  occ. eigenvalues --   -7.91670  -7.90758  -5.94388  -5.93930  -5.93860
 Alpha  occ. eigenvalues --   -5.93731  -5.93425  -5.93405  -5.93342  -5.93261
 Alpha  occ. eigenvalues --   -5.93184  -5.92921  -5.92818  -5.92760  -5.92715
 Alpha  occ. eigenvalues --   -5.92336  -5.92335  -5.92288  -5.91785  -5.91406
 Alpha  occ. eigenvalues --   -1.21593  -1.21238  -1.20580  -1.05782  -1.05101
 Alpha  occ. eigenvalues --   -1.04499  -1.03346  -1.02473  -1.01520  -0.94053
 Alpha  occ. eigenvalues --   -0.92363  -0.90865  -0.89882  -0.89651  -0.89172
 Alpha  occ. eigenvalues --   -0.88004  -0.87584  -0.86701  -0.86348  -0.85606
 Alpha  occ. eigenvalues --   -0.84553  -0.83398  -0.81772  -0.79981  -0.75143
 Alpha  occ. eigenvalues --   -0.74083  -0.73321  -0.71172  -0.70235  -0.69237
 Alpha  occ. eigenvalues --   -0.68591  -0.67901  -0.67421  -0.66594  -0.66026
 Alpha  occ. eigenvalues --   -0.65780  -0.65219  -0.64329  -0.62874  -0.61178
 Alpha  occ. eigenvalues --   -0.60826  -0.60709  -0.60253  -0.60220  -0.59848
 Alpha  occ. eigenvalues --   -0.58907  -0.57533  -0.56931  -0.56746  -0.55193
 Alpha  occ. eigenvalues --   -0.54555  -0.54487  -0.54064  -0.53709  -0.53186
 Alpha  occ. eigenvalues --   -0.52349  -0.52133  -0.52001  -0.51411  -0.51120
 Alpha  occ. eigenvalues --   -0.51047  -0.50368  -0.50209  -0.49836  -0.49302
 Alpha  occ. eigenvalues --   -0.48811  -0.47955  -0.47241  -0.46957  -0.46389
 Alpha  occ. eigenvalues --   -0.46031  -0.45557  -0.45475  -0.45294  -0.44883
 Alpha  occ. eigenvalues --   -0.44732  -0.43708  -0.43281  -0.42833  -0.41155
 Alpha  occ. eigenvalues --   -0.39221  -0.36825  -0.35877  -0.35431  -0.34600
 Alpha  occ. eigenvalues --   -0.34448  -0.34245  -0.33693  -0.31109  -0.28355
 Alpha  occ. eigenvalues --   -0.25866
 Alpha virt. eigenvalues --    0.00090   0.02502   0.05163   0.08161   0.10388
 Alpha virt. eigenvalues --    0.11660   0.11847   0.12452   0.12640   0.13213
 Alpha virt. eigenvalues --    0.13613   0.14905   0.14985   0.15306   0.15535

  Beta  occ. eigenvalues --  -88.32063 -88.31595 -88.31449 -88.31009 -88.30979
  Beta  occ. eigenvalues --  -88.30058 -19.02037 -19.01672 -19.00996 -10.18541
  Beta  occ. eigenvalues --  -10.18208 -10.17926 -10.17543 -10.17532 -10.16981
  Beta  occ. eigenvalues --  -10.16416 -10.16021 -10.15805 -10.15568 -10.15557
  Beta  occ. eigenvalues --  -10.15325 -10.15115 -10.14856 -10.14681 -10.14631
  Beta  occ. eigenvalues --  -10.14062 -10.13109 -10.12708 -10.12526 -10.12160
  Beta  occ. eigenvalues --  -10.11967 -10.11894 -10.11686 -10.11444 -10.10778
  Beta  occ. eigenvalues --  -10.10590  -7.92811  -7.92338  -7.92140  -7.91752
  Beta  occ. eigenvalues --   -7.91670  -7.90758  -5.94388  -5.93930  -5.93860
  Beta  occ. eigenvalues --   -5.93731  -5.93425  -5.93405  -5.93342  -5.93261
  Beta  occ. eigenvalues --   -5.93184  -5.92921  -5.92818  -5.92760  -5.92715
  Beta  occ. eigenvalues --   -5.92336  -5.92335  -5.92288  -5.91785  -5.91406
  Beta  occ. eigenvalues --   -1.21593  -1.21238  -1.20580  -1.05782  -1.05101
  Beta  occ. eigenvalues --   -1.04499  -1.03346  -1.02473  -1.01520  -0.94053
  Beta  occ. eigenvalues --   -0.92363  -0.90865  -0.89882  -0.89651  -0.89172
  Beta  occ. eigenvalues --   -0.88004  -0.87584  -0.86701  -0.86348  -0.85606
  Beta  occ. eigenvalues --   -0.84553  -0.83398  -0.81772  -0.79981  -0.75143
  Beta  occ. eigenvalues --   -0.74083  -0.73321  -0.71172  -0.70235  -0.69237
  Beta  occ. eigenvalues --   -0.68591  -0.67901  -0.67421  -0.66594  -0.66026
  Beta  occ. eigenvalues --   -0.65780  -0.65219  -0.64329  -0.62874  -0.61178
  Beta  occ. eigenvalues --   -0.60826  -0.60709  -0.60253  -0.60220  -0.59848
  Beta  occ. eigenvalues --   -0.58907  -0.57533  -0.56931  -0.56746  -0.55193
  Beta  occ. eigenvalues --   -0.54555  -0.54487  -0.54064  -0.53709  -0.53186
  Beta  occ. eigenvalues --   -0.52349  -0.52133  -0.52001  -0.51411  -0.51120
  Beta  occ. eigenvalues --   -0.51047  -0.50368  -0.50209  -0.49836  -0.49302
  Beta  occ. eigenvalues --   -0.48811  -0.47955  -0.47241  -0.46957  -0.46389
  Beta  occ. eigenvalues --   -0.46031  -0.45557  -0.45475  -0.45294  -0.44883
  Beta  occ. eigenvalues --   -0.44732  -0.43708  -0.43281  -0.42833  -0.41155
  Beta  occ. eigenvalues --   -0.39221  -0.36825  -0.35877  -0.35431  -0.34600
  Beta  occ. eigenvalues --   -0.34448  -0.34245  -0.33693  -0.31109  -0.28355
  Beta  occ. eigenvalues --   -0.25866
  Beta virt. eigenvalues --    0.00090   0.02502   0.05163   0.08161   0.10388
  Beta virt. eigenvalues --    0.11660   0.11847   0.12452   0.12640   0.13213
  Beta virt. eigenvalues --    0.13613   0.14905   0.14985   0.15306   0.15535

 Mulliken charges and spin densities:
               1          2
     1  C   -0.151657  -0.000000
     2  C    0.049568   0.000000
     3  C   -0.027206  -0.000000
     4  C   -0.110608  -0.000000
     5  S    0.165513   0.000000
     6  C   -0.149433   0.000000
     7  C    0.148971   0.000000
     8  O   -0.260240  -0.000000
     9  C    0.046143  -0.000000
    10  C   -0.000478  -0.000000
    11  C   -0.120013  -0.000000
    12  S    0.165587   0.000000
    13  C   -0.134891   0.000000
    14  C    0.028429  -0.000000
    15  C    0.005061   0.000000
    16  C   -0.105138  -0.000000
    17  S    0.177301   0.000000
    18  C   -0.158836   0.000000
    19  C    0.146782  -0.000000
    20  O   -0.260879  -0.000000
    21  C    0.046344  -0.000000
    22  C    0.002003   0.000000
    23  C   -0.117447  -0.000000
    24  S    0.168707  -0.000000
    25  C   -0.137098  -0.000000
    26  C    0.026934   0.000000
    27  C    0.008948   0.000000
    28  C   -0.096095  -0.000000
    29  S    0.178953   0.000000
    30  C   -0.170579   0.000000
    31  C    0.131792   0.000000
    32  O   -0.259978   0.000000
    33  C    0.045019  -0.000000
    34  C    0.012899  -0.000000
    35  C   -0.131798  -0.000000
    36  S    0.165853   0.000000
    37  H    0.034432  -0.000000
    38  H    0.002274   0.000000
    39  H    0.008543  -0.000000
    40  H    0.063853   0.000000
    41  H    0.051734   0.000000
    42  H    0.050503   0.000000
    43  H    0.012838   0.000000
    44  H    0.008065   0.000000
    45  H    0.009302   0.000000
    46  H    0.064022   0.000000
    47  H    0.052799  -0.000000
    48  H    0.052457  -0.000000
    49  H    0.013937   0.000000
    50  H    0.009250   0.000000
    51  H    0.009674   0.000000
    52  H    0.064804   0.000000
    53  H    0.052676  -0.000000
    54  H    0.051642   0.000000
    55  H    0.014223   0.000000
    56  H    0.044536  -0.000000
 Sum of Mulliken charges =  -0.00000   0.00000

 Dipole moment (field-independent basis, Debye):
    X=             -6.0774    Y=              4.2796    Z=             -0.0518  Tot=              7.4332
 Quadrupole moment (field-independent basis, Debye-Ang):
   XX=           -202.2538   YY=           -215.5230   ZZ=           -252.5605
   XY=             -9.6826   XZ=            -13.2692   YZ=              0.4739

 Normal termination of Gaussian 16 at Fri Jul 24 17:37:42 2020.
