 Gaussian 16, Revision A.03,
 Gaussian 16:  EM64L-G16RevA.03 25-Dec-2016

 ---------------------------------------------------------------
 #P uLC-wPBE/cc-pVDZ iop(3/107=0473100000, 3/108=0473100000) opt
 ---------------------------------------------------------------

 -------------
 H10 C11 S1 O1
 -------------
 Symbolic Z-matrix:
 Charge =  0 Multiplicity = 1

 SCF Done:  E(ULC-wPBE) =  -898.112392339     A.U. after   16 cycles
 SCF Done:  E(ULC-wPBE) =  -898.145599050     A.U. after   15 cycles
 SCF Done:  E(ULC-wPBE) =  -898.153061839     A.U. after   14 cycles
 SCF Done:  E(ULC-wPBE) =  -898.153761541     A.U. after   14 cycles
 SCF Done:  E(ULC-wPBE) =  -898.153924607     A.U. after   14 cycles
 SCF Done:  E(ULC-wPBE) =  -898.154061418     A.U. after   13 cycles
 SCF Done:  E(ULC-wPBE) =  -898.154082851     A.U. after   12 cycles
 SCF Done:  E(ULC-wPBE) =  -898.154086939     A.U. after   10 cycles
 SCF Done:  E(ULC-wPBE) =  -898.154088150     A.U. after    8 cycles
 SCF Done:  E(ULC-wPBE) =  -898.154089946     A.U. after   10 cycles
 SCF Done:  E(ULC-wPBE) =  -898.154090830     A.U. after    9 cycles
 SCF Done:  E(ULC-wPBE) =  -898.154091626     A.U. after    9 cycles
 SCF Done:  E(ULC-wPBE) =  -898.154091715     A.U. after    8 cycles
 Optimization completed.
    -- Stationary point found.

                         Standard orientation:
 ---------------------------------------------------------------------
 Center     Atomic      Atomic             Coordinates (Angstroms)
 Number     Number       Type             X           Y           Z
 ---------------------------------------------------------------------
      1          6           0        3.758315    0.381413    0.014073
      2          6           0        2.876490    1.327347   -0.484235
      3          6           0        1.515175    1.077636   -0.507172
      4          6           0        1.007230   -0.127975   -0.024197
      5          6           0        1.903236   -1.070491    0.479279
      6          6           0        3.264321   -0.820570    0.494699
      7          6           0       -0.435692   -0.409125   -0.054247
      8          6           0       -1.487284    0.464746    0.025123
      9          8           0       -1.285325    1.796545    0.136320
     10          6           0       -2.412973    2.600793    0.362705
     11          6           0       -2.760772   -0.177902   -0.017022
     12          6           0       -2.644866   -1.523736   -0.133705
     13         16           0       -1.021113   -2.023808   -0.198136
     14          1           0        4.828185    0.580917    0.028808
     15          1           0        3.253032    2.274466   -0.867008
     16          1           0        0.830535    1.822412   -0.901723
     17          1           0        1.527670   -2.012318    0.877107
     18          1           0        3.944161   -1.571370    0.893581
     19          1           0       -2.045518    3.622632    0.484003
     20          1           0       -2.944261    2.302246    1.276770
     21          1           0       -3.108746    2.572581   -0.487370
     22          1           0       -3.715571    0.334364    0.037558
     23          1           0       -3.448175   -2.250183   -0.193924
 ---------------------------------------------------------------------

 The electronic state is 1-A.
 Alpha  occ. eigenvalues --  -88.35695 -19.05075 -10.22173 -10.21648 -10.19237
 Alpha  occ. eigenvalues --  -10.18235 -10.17437 -10.16768 -10.15792 -10.15744
 Alpha  occ. eigenvalues --  -10.15667 -10.15610 -10.15367  -7.96637  -5.97825
 Alpha  occ. eigenvalues --   -5.97279  -5.96873  -1.24737  -1.07834  -1.04027
 Alpha  occ. eigenvalues --   -0.95245  -0.92599  -0.91489  -0.89101  -0.84952
 Alpha  occ. eigenvalues --   -0.77149  -0.76482  -0.71985  -0.70383  -0.68848
 Alpha  occ. eigenvalues --   -0.63807  -0.62615  -0.61216  -0.59339  -0.58423
 Alpha  occ. eigenvalues --   -0.57357  -0.55286  -0.54862  -0.54286  -0.52156
 Alpha  occ. eigenvalues --   -0.50642  -0.48350  -0.47925  -0.46107  -0.45765
 Alpha  occ. eigenvalues --   -0.45159  -0.39231  -0.36053  -0.34927  -0.30466
 Alpha virt. eigenvalues --    0.04911   0.08849   0.11128   0.14607   0.16116
 Alpha virt. eigenvalues --    0.17080   0.18454   0.18749   0.20572   0.21307
 Alpha virt. eigenvalues --    0.21875   0.23007   0.23364   0.24933   0.25553

  Beta  occ. eigenvalues --  -88.35695 -19.05075 -10.22173 -10.21648 -10.19237
  Beta  occ. eigenvalues --  -10.18235 -10.17437 -10.16768 -10.15792 -10.15744
  Beta  occ. eigenvalues --  -10.15667 -10.15610 -10.15367  -7.96637  -5.97825
  Beta  occ. eigenvalues --   -5.97279  -5.96873  -1.24737  -1.07834  -1.04027
  Beta  occ. eigenvalues --   -0.95245  -0.92599  -0.91489  -0.89101  -0.84952
  Beta  occ. eigenvalues --   -0.77149  -0.76482  -0.71985  -0.70383  -0.68848
  Beta  occ. eigenvalues --   -0.63807  -0.62615  -0.61216  -0.59339  -0.58423
  Beta  occ. eigenvalues --   -0.57357  -0.55286  -0.54862  -0.54286  -0.52156
  Beta  occ. eigenvalues --   -0.50642  -0.48350  -0.47925  -0.46107  -0.45765
  Beta  occ. eigenvalues --   -0.45159  -0.39231  -0.36053  -0.34927  -0.30466
  Beta virt. eigenvalues --    0.04911   0.08849   0.11128   0.14607   0.16116
  Beta virt. eigenvalues --    0.17080   0.18454   0.18749   0.20572   0.21307
  Beta virt. eigenvalues --    0.21875   0.23007   0.23364   0.24933   0.25553

 Mulliken charges and spin densities:
               1          2
     1  C   -0.014443   0.000000
     2  C    0.000961  -0.000000
     3  C   -0.011249   0.000000
     4  C    0.032305   0.000000
     5  C   -0.028529   0.000000
     6  C   -0.002333  -0.000000
     7  C   -0.210828  -0.000000
     8  C    0.143912   0.000000
     9  O   -0.268409   0.000000
    10  C    0.032405   0.000000
    11  C   -0.008400   0.000000
    12  C   -0.144039  -0.000000
    13  S    0.164605   0.000000
    14  H    0.011859   0.000000
    15  H    0.012943  -0.000000
    16  H    0.012855   0.000000
    17  H    0.014288  -0.000000
    18  H    0.013536   0.000000
    19  H    0.067681   0.000000
    20  H    0.053850   0.000000
    21  H    0.052941  -0.000000
    22  H    0.023194  -0.000000
    23  H    0.050893   0.000000
 Sum of Mulliken charges =  -0.00000   0.00000

 Dipole moment (field-independent basis, Debye):
    X=             -2.0221    Y=              1.0785    Z=              0.2733  Tot=              2.3080
 Quadrupole moment (field-independent basis, Debye-Ang):
   XX=            -67.2622   YY=            -73.8169   ZZ=            -86.2528
   XY=             -2.8340   XZ=             -0.0575   YZ=             -1.7376

 Normal termination of Gaussian 16 at Fri Jul 24 14:37:36 2020.
