 Gaussian 16, Revision A.03,
 Gaussian 16:  EM64L-G16RevA.03 25-Dec-2016

 ---------------------------------------------------------------
 #P uLC-wPBE/cc-pVDZ iop(3/107=0486700000, 3/108=0486700000) opt
 ---------------------------------------------------------------

 ----------
 H37 C55 N5
 ----------
 Symbolic Z-matrix:
 Charge =  0 Multiplicity = 1

 SCF Done:  E(ULC-wPBE) =  -2390.13805881     A.U. after   15 cycles
 SCF Done:  E(ULC-wPBE) =  -2390.23059305     A.U. after   13 cycles
 SCF Done:  E(ULC-wPBE) =  -2390.30763323     A.U. after   16 cycles
 SCF Done:  E(ULC-wPBE) =  -2390.32994352     A.U. after   15 cycles
 SCF Done:  E(ULC-wPBE) =  -2390.33535088     A.U. after   15 cycles
 SCF Done:  E(ULC-wPBE) =  -2390.33604095     A.U. after   14 cycles
 SCF Done:  E(ULC-wPBE) =  -2390.33630161     A.U. after   13 cycles
 SCF Done:  E(ULC-wPBE) =  -2390.33638203     A.U. after   11 cycles
 SCF Done:  E(ULC-wPBE) =  -2390.33641723     A.U. after   11 cycles
 SCF Done:  E(ULC-wPBE) =  -2390.33642749     A.U. after   11 cycles
 SCF Done:  E(ULC-wPBE) =  -2390.33643549     A.U. after   11 cycles
 SCF Done:  E(ULC-wPBE) =  -2390.33643921     A.U. after   11 cycles
 SCF Done:  E(ULC-wPBE) =  -2390.33644167     A.U. after   10 cycles
 SCF Done:  E(ULC-wPBE) =  -2390.33644280     A.U. after   11 cycles
 SCF Done:  E(ULC-wPBE) =  -2390.33644270     A.U. after    9 cycles
 SCF Done:  E(ULC-wPBE) =  -2390.33644282     A.U. after    7 cycles
 SCF Done:  E(ULC-wPBE) =  -2390.33644285     A.U. after    6 cycles
 Optimization completed.
    -- Stationary point found.

                         Standard orientation:
 ---------------------------------------------------------------------
 Center     Atomic      Atomic             Coordinates (Angstroms)
 Number     Number       Type             X           Y           Z
 ---------------------------------------------------------------------
      1          6           0       20.451715   -0.434224    0.648814
      2          6           0       19.893389   -1.404072   -0.163855
      3          6           0       18.522360   -1.432370   -0.329738
      4          6           0       17.740650   -0.488696    0.330794
      5          7           0       18.281706    0.451639    1.100977
      6          6           0       19.595854    0.471569    1.250752
      7          6           0       16.260700   -0.460978    0.201478
      8          6           0       15.534134   -1.555174   -0.255000
      9          6           0       14.157313   -1.495833   -0.366180
     10          6           0       13.462175   -0.340383   -0.025180
     11          6           0       14.190285    0.751612    0.439119
     12          6           0       15.565019    0.690237    0.554932
     13          6           0       11.990905   -0.278764   -0.147631
     14          6           0       11.314413   -0.816283   -1.234813
     15          6           0        9.938799   -0.731869   -1.298054
     16          6           0        9.247074   -0.110029   -0.263301
     17          7           0        9.889119    0.413671    0.777659
     18          6           0       11.205729    0.327862    0.827364
     19          6           0        7.767902    0.023179   -0.262072
     20          6           0        6.952409   -0.724011   -1.104815
     21          6           0        5.578191   -0.573067   -1.081209
     22          6           0        4.973972    0.329839   -0.212851
     23          6           0        5.791066    1.071533    0.635991
     24          6           0        7.162997    0.918272    0.614470
     25          6           0        3.505890    0.495466   -0.188469
     26          6           0        2.903251    1.742026   -0.080278
     27          6           0        1.527232    1.840159   -0.062601
     28          6           0        0.761192    0.681842   -0.148626
     29          7           0        1.331451   -0.515040   -0.259148
     30          6           0        2.649161   -0.596969   -0.275950
     31          6           0       -0.723504    0.707982   -0.140769
     32          6           0       -1.429424   -0.414408   -0.561100
     33          6           0       -2.810262   -0.420361   -0.573938
     34          6           0       -3.534384    0.693656   -0.158305
     35          6           0       -2.828117    1.811532    0.273309
     36          6           0       -1.445700    1.818816    0.281896
     37          6           0       -5.011939    0.689655   -0.169207
     38          6           0       -5.753066    1.786709   -0.588533
     39          6           0       -7.131447    1.728883   -0.578136
     40          6           0       -7.760448    0.567573   -0.140272
     41          7           0       -7.056886   -0.489814    0.255982
     42          6           0       -5.738272   -0.423770    0.240596
     43          6           0       -9.238429    0.429010   -0.104792
     44          6           0      -10.090309    1.525848   -0.178439
     45          6           0      -11.462613    1.361767   -0.146441
     46          6           0      -12.029098    0.095801   -0.040211
     47          6           0      -11.175015   -1.000619    0.040982
     48          6           0       -9.804165   -0.836175    0.013628
     49          6           0      -13.496360   -0.076370   -0.009282
     50          6           0      -14.344912    0.646587   -0.837708
     51          6           0      -15.708014    0.447060   -0.766364
     52          6           0      -16.214379   -0.476244    0.143466
     53          7           0      -15.407004   -1.178758    0.933751
     54          6           0      -14.103678   -0.980583    0.855679
     55          6           0      -17.669552   -0.745936    0.272853
     56          6           0      -18.092686   -1.917468    0.892796
     57          6           0      -19.440071   -2.201096    1.019975
     58          6           0      -20.388844   -1.313461    0.537196
     59          6           0      -19.978425   -0.138413   -0.069806
     60          6           0      -18.629203    0.142781   -0.200917
     61          1           0       21.524820   -0.372918    0.809145
     62          1           0       20.521932   -2.132146   -0.672714
     63          1           0       18.067494   -2.172086   -0.981606
     64          1           0       19.991146    1.260279    1.892144
     65          1           0       16.037945   -2.485450   -0.505708
     66          1           0       13.609989   -2.375539   -0.699084
     67          1           0       13.673233    1.674037    0.695896
     68          1           0       16.131290    1.541683    0.921432
     69          1           0       11.869518   -1.281388   -2.047389
     70          1           0        9.413145   -1.127797   -2.161474
     71          1           0       11.678132    0.755817    1.712788
     72          1           0        7.383716   -1.448226   -1.791259
     73          1           0        4.965325   -1.157937   -1.763957
     74          1           0        5.342434    1.766789    1.343053
     75          1           0        7.797828    1.485514    1.289074
     76          1           0        3.514391    2.641512   -0.034421
     77          1           0        1.056430    2.816843   -0.006619
     78          1           0        3.062747   -1.604079   -0.346791
     79          1           0       -0.866154   -1.285720   -0.882680
     80          1           0       -3.337204   -1.301945   -0.933490
     81          1           0       -3.368853    2.683803    0.635269
     82          1           0       -0.931989    2.702994    0.650985
     83          1           0       -5.247942    2.681161   -0.948502
     84          1           0       -7.710171    2.576113   -0.933073
     85          1           0       -5.212519   -1.311734    0.594713
     86          1           0       -9.687745    2.534073   -0.236514
     87          1           0      -12.106139    2.238777   -0.177939
     88          1           0      -11.591386   -2.003835    0.106610
     89          1           0       -9.139532   -1.692739    0.080285
     90          1           0      -13.934042    1.350061   -1.559638
     91          1           0      -16.370072    0.989098   -1.434733
     92          1           0      -13.490618   -1.568411    1.540566
     93          1           0      -17.337456   -2.597965    1.275879
     94          1           0      -19.753305   -3.124685    1.502362
     95          1           0      -21.449162   -1.535111    0.638929
     96          1           0      -20.715164    0.570983   -0.440698
     97          1           0      -18.329536    1.080488   -0.662877
 ---------------------------------------------------------------------

 The electronic state is 1-A.
 Alpha  occ. eigenvalues --  -14.26408 -14.26408 -14.26329 -14.26194 -14.25841
 Alpha  occ. eigenvalues --  -10.22066 -10.21927 -10.21830 -10.21711 -10.21330
 Alpha  occ. eigenvalues --  -10.21043 -10.20934 -10.20865 -10.20732 -10.20425
 Alpha  occ. eigenvalues --  -10.19735 -10.19547 -10.19443 -10.19357 -10.19065
 Alpha  occ. eigenvalues --  -10.19055 -10.19032 -10.18986 -10.18944 -10.18872
 Alpha  occ. eigenvalues --  -10.18848 -10.18659 -10.18557 -10.18408 -10.18385
 Alpha  occ. eigenvalues --  -10.18349 -10.18345 -10.18258 -10.18255 -10.18246
 Alpha  occ. eigenvalues --  -10.18147 -10.18085 -10.18070 -10.17965 -10.17909
 Alpha  occ. eigenvalues --  -10.17897 -10.17787 -10.17784 -10.17735 -10.17735
 Alpha  occ. eigenvalues --  -10.17646 -10.17593 -10.17547 -10.17518 -10.17467
 Alpha  occ. eigenvalues --  -10.17271 -10.17235 -10.17147 -10.17056 -10.17052
 Alpha  occ. eigenvalues --  -10.16880 -10.16868 -10.16818 -10.16601 -10.16249
 Alpha  occ. eigenvalues --   -1.14794  -1.14707  -1.14696  -1.14570  -1.14212
 Alpha  occ. eigenvalues --   -1.07183  -1.06920  -1.06621  -1.06339  -1.05128
 Alpha  occ. eigenvalues --   -1.01794  -1.01284  -1.00759  -1.00361  -0.99818
 Alpha  occ. eigenvalues --   -0.98394  -0.98109  -0.97719  -0.97058  -0.96204
 Alpha  occ. eigenvalues --   -0.94407  -0.93824  -0.93685  -0.93625  -0.93433
 Alpha  occ. eigenvalues --   -0.92975  -0.92626  -0.91499  -0.90016  -0.88834
 Alpha  occ. eigenvalues --   -0.84131  -0.82870  -0.82491  -0.81954  -0.81491
 Alpha  occ. eigenvalues --   -0.81235  -0.80855  -0.80551  -0.79668  -0.78672
 Alpha  occ. eigenvalues --   -0.77804  -0.77210  -0.76533  -0.76116  -0.75864
 Alpha  occ. eigenvalues --   -0.75388  -0.75311  -0.74780  -0.74346  -0.74009
 Alpha  occ. eigenvalues --   -0.70880  -0.70543  -0.70084  -0.69471  -0.68730
 Alpha  occ. eigenvalues --   -0.67130  -0.66202  -0.65987  -0.65537  -0.64861
 Alpha  occ. eigenvalues --   -0.64762  -0.64109  -0.63981  -0.63769  -0.63364
 Alpha  occ. eigenvalues --   -0.62857  -0.60514  -0.60414  -0.60228  -0.60103
 Alpha  occ. eigenvalues --   -0.59841  -0.59704  -0.59542  -0.59475  -0.59068
 Alpha  occ. eigenvalues --   -0.58964  -0.58803  -0.58665  -0.58349  -0.58142
 Alpha  occ. eigenvalues --   -0.57324  -0.57264  -0.57186  -0.56931  -0.56883
 Alpha  occ. eigenvalues --   -0.56593  -0.56580  -0.56396  -0.56232  -0.56061
 Alpha  occ. eigenvalues --   -0.55617  -0.55530  -0.54912  -0.54574  -0.54427
 Alpha  occ. eigenvalues --   -0.54066  -0.53571  -0.53301  -0.53135  -0.52815
 Alpha  occ. eigenvalues --   -0.52329  -0.51917  -0.51754  -0.51206  -0.50910
 Alpha  occ. eigenvalues --   -0.50385  -0.48769  -0.48590  -0.48331  -0.48252
 Alpha  occ. eigenvalues --   -0.47650  -0.47499  -0.47450  -0.47324  -0.47078
 Alpha  occ. eigenvalues --   -0.46682  -0.44589  -0.43742  -0.42645  -0.41709
 Alpha  occ. eigenvalues --   -0.41473  -0.40791  -0.40614  -0.40333  -0.39984
 Alpha  occ. eigenvalues --   -0.39417  -0.39348  -0.39192  -0.38995  -0.38805
 Alpha  occ. eigenvalues --   -0.38553  -0.37521  -0.37435  -0.37354  -0.37179
 Alpha  occ. eigenvalues --   -0.36439  -0.36151  -0.34725  -0.33222  -0.31879
 Alpha  occ. eigenvalues --   -0.31000
 Alpha virt. eigenvalues --    0.00236   0.01288   0.02751   0.04369   0.05509
 Alpha virt. eigenvalues --    0.05728   0.05807   0.05887   0.06149   0.06449
 Alpha virt. eigenvalues --    0.08020   0.08127   0.08243   0.08379   0.09125

  Beta  occ. eigenvalues --  -14.26408 -14.26408 -14.26329 -14.26194 -14.25841
  Beta  occ. eigenvalues --  -10.22066 -10.21927 -10.21830 -10.21711 -10.21330
  Beta  occ. eigenvalues --  -10.21043 -10.20934 -10.20865 -10.20732 -10.20425
  Beta  occ. eigenvalues --  -10.19735 -10.19547 -10.19443 -10.19357 -10.19065
  Beta  occ. eigenvalues --  -10.19055 -10.19032 -10.18986 -10.18944 -10.18872
  Beta  occ. eigenvalues --  -10.18848 -10.18659 -10.18557 -10.18408 -10.18385
  Beta  occ. eigenvalues --  -10.18349 -10.18345 -10.18258 -10.18255 -10.18246
  Beta  occ. eigenvalues --  -10.18147 -10.18085 -10.18070 -10.17965 -10.17909
  Beta  occ. eigenvalues --  -10.17897 -10.17787 -10.17784 -10.17735 -10.17735
  Beta  occ. eigenvalues --  -10.17646 -10.17593 -10.17547 -10.17518 -10.17467
  Beta  occ. eigenvalues --  -10.17271 -10.17235 -10.17147 -10.17056 -10.17052
  Beta  occ. eigenvalues --  -10.16880 -10.16868 -10.16818 -10.16601 -10.16249
  Beta  occ. eigenvalues --   -1.14794  -1.14707  -1.14696  -1.14570  -1.14212
  Beta  occ. eigenvalues --   -1.07183  -1.06920  -1.06621  -1.06339  -1.05128
  Beta  occ. eigenvalues --   -1.01794  -1.01284  -1.00759  -1.00361  -0.99818
  Beta  occ. eigenvalues --   -0.98394  -0.98109  -0.97719  -0.97058  -0.96204
  Beta  occ. eigenvalues --   -0.94407  -0.93824  -0.93685  -0.93625  -0.93433
  Beta  occ. eigenvalues --   -0.92975  -0.92626  -0.91499  -0.90016  -0.88834
  Beta  occ. eigenvalues --   -0.84131  -0.82870  -0.82491  -0.81954  -0.81491
  Beta  occ. eigenvalues --   -0.81235  -0.80855  -0.80551  -0.79668  -0.78672
  Beta  occ. eigenvalues --   -0.77804  -0.77210  -0.76533  -0.76116  -0.75864
  Beta  occ. eigenvalues --   -0.75388  -0.75311  -0.74780  -0.74346  -0.74009
  Beta  occ. eigenvalues --   -0.70880  -0.70543  -0.70084  -0.69471  -0.68730
  Beta  occ. eigenvalues --   -0.67130  -0.66202  -0.65987  -0.65537  -0.64861
  Beta  occ. eigenvalues --   -0.64762  -0.64109  -0.63981  -0.63769  -0.63364
  Beta  occ. eigenvalues --   -0.62857  -0.60514  -0.60414  -0.60228  -0.60103
  Beta  occ. eigenvalues --   -0.59841  -0.59704  -0.59542  -0.59475  -0.59068
  Beta  occ. eigenvalues --   -0.58964  -0.58803  -0.58665  -0.58349  -0.58142
  Beta  occ. eigenvalues --   -0.57324  -0.57264  -0.57186  -0.56931  -0.56883
  Beta  occ. eigenvalues --   -0.56593  -0.56580  -0.56396  -0.56232  -0.56061
  Beta  occ. eigenvalues --   -0.55617  -0.55530  -0.54912  -0.54574  -0.54427
  Beta  occ. eigenvalues --   -0.54066  -0.53571  -0.53301  -0.53135  -0.52815
  Beta  occ. eigenvalues --   -0.52329  -0.51917  -0.51754  -0.51206  -0.50910
  Beta  occ. eigenvalues --   -0.50385  -0.48769  -0.48590  -0.48331  -0.48252
  Beta  occ. eigenvalues --   -0.47650  -0.47499  -0.47450  -0.47324  -0.47078
  Beta  occ. eigenvalues --   -0.46682  -0.44589  -0.43742  -0.42645  -0.41709
  Beta  occ. eigenvalues --   -0.41473  -0.40791  -0.40614  -0.40333  -0.39984
  Beta  occ. eigenvalues --   -0.39417  -0.39348  -0.39192  -0.38995  -0.38805
  Beta  occ. eigenvalues --   -0.38553  -0.37521  -0.37435  -0.37354  -0.37179
  Beta  occ. eigenvalues --   -0.36439  -0.36151  -0.34725  -0.33222  -0.31879
  Beta  occ. eigenvalues --   -0.31000
  Beta virt. eigenvalues --    0.00236   0.01288   0.02751   0.04369   0.05509
  Beta virt. eigenvalues --    0.05728   0.05807   0.05887   0.06149   0.06449
  Beta virt. eigenvalues --    0.08020   0.08127   0.08243   0.08379   0.09125

 Mulliken charges and spin densities:
               1          2
     1  C   -0.082188  -0.000000
     2  C    0.056986   0.000000
     3  C   -0.050934  -0.000000
     4  C    0.104137   0.000000
     5  N   -0.219289   0.000000
     6  C    0.090277  -0.000000
     7  C   -0.037319   0.000000
     8  C   -0.030033  -0.000000
     9  C   -0.008856  -0.000000
    10  C   -0.007981   0.000000
    11  C   -0.004141   0.000000
    12  C    0.038121  -0.000000
    13  C   -0.085751  -0.000000
    14  C    0.060407  -0.000000
    15  C   -0.033059   0.000000
    16  C    0.109708   0.000000
    17  N   -0.218261  -0.000000
    18  C    0.100828   0.000000
    19  C   -0.042371  -0.000000
    20  C   -0.033025   0.000000
    21  C   -0.007375  -0.000000
    22  C   -0.009279  -0.000000
    23  C   -0.004165  -0.000000
    24  C    0.039952   0.000000
    25  C   -0.084653  -0.000000
    26  C    0.060923   0.000000
    27  C   -0.032993  -0.000000
    28  C    0.107986  -0.000000
    29  N   -0.217766   0.000000
    30  C    0.099893   0.000000
    31  C   -0.040353   0.000000
    32  C    0.038908  -0.000000
    33  C   -0.003627   0.000000
    34  C   -0.007716   0.000000
    35  C   -0.008138   0.000000
    36  C   -0.033744  -0.000000
    37  C   -0.085501  -0.000000
    38  C    0.059996  -0.000000
    39  C   -0.032926   0.000000
    40  C    0.108073   0.000000
    41  N   -0.217555  -0.000000
    42  C    0.100513   0.000000
    43  C   -0.040534   0.000000
    44  C   -0.034006  -0.000000
    45  C   -0.008103   0.000000
    46  C   -0.007448   0.000000
    47  C   -0.003573  -0.000000
    48  C    0.038780  -0.000000
    49  C   -0.086778   0.000000
    50  C    0.059550  -0.000000
    51  C   -0.032207   0.000000
    52  C    0.106900  -0.000000
    53  N   -0.216496  -0.000000
    54  C    0.099292   0.000000
    55  C   -0.043447   0.000000
    56  C    0.021980  -0.000000
    57  C    0.001837   0.000000
    58  C   -0.008917  -0.000000
    59  C   -0.002017   0.000000
    60  C   -0.046627  -0.000000
    61  H    0.025154   0.000000
    62  H    0.028058   0.000000
    63  H    0.023393  -0.000000
    64  H    0.031823   0.000000
    65  H    0.010461  -0.000000
    66  H    0.009323  -0.000000
    67  H    0.014497  -0.000000
    68  H    0.018300  -0.000000
    69  H    0.018605  -0.000000
    70  H    0.022128   0.000000
    71  H    0.029544   0.000000
    72  H    0.009751   0.000000
    73  H    0.011795  -0.000000
    74  H    0.012127  -0.000000
    75  H    0.017996  -0.000000
    76  H    0.020017   0.000000
    77  H    0.022032  -0.000000
    78  H    0.027993  -0.000000
    79  H    0.017952  -0.000000
    80  H    0.014537  -0.000000
    81  H    0.009037   0.000000
    82  H    0.009676   0.000000
    83  H    0.018217   0.000000
    84  H    0.021649  -0.000000
    85  H    0.029532   0.000000
    86  H    0.008836  -0.000000
    87  H    0.008726   0.000000
    88  H    0.014539   0.000000
    89  H    0.018088  -0.000000
    90  H    0.017555   0.000000
    91  H    0.022220  -0.000000
    92  H    0.028775  -0.000000
    93  H    0.015599  -0.000000
    94  H    0.018175   0.000000
    95  H    0.015711   0.000000
    96  H    0.015181   0.000000
    97  H    0.007101  -0.000000
 Sum of Mulliken charges =  -0.00000  -0.00000

 Dipole moment (field-independent basis, Debye):
    X=              6.3055    Y=              1.9799    Z=             -3.7034  Tot=              7.5759
 Quadrupole moment (field-independent basis, Debye-Ang):
   XX=           -246.2457   YY=           -313.9880   ZZ=           -346.8069
   XY=            -55.8639   XZ=             -1.5782   YZ=              6.1264

 Normal termination of Gaussian 16 at Thu Jul 23 18:58:42 2020.
