 Gaussian 16, Revision A.03,
 Gaussian 16:  EM64L-G16RevA.03 25-Dec-2016

 ---------------------------------------------------------------
 #P uLC-wPBE/cc-pVDZ iop(3/107=0290000000, 3/108=0290000000) opt
 ---------------------------------------------------------------

 -------------
 H42 C55 S5 O5
 -------------
 Symbolic Z-matrix:
 Charge =  0 Multiplicity = 1

 SCF Done:  E(ULC-wPBE) =  -4485.49808399     A.U. after   17 cycles
 SCF Done:  E(ULC-wPBE) =  -4485.58527664     A.U. after   15 cycles
 SCF Done:  E(ULC-wPBE) =  -4485.67009531     A.U. after   16 cycles
 SCF Done:  E(ULC-wPBE) =  -4485.69201577     A.U. after   14 cycles
 SCF Done:  E(ULC-wPBE) =  -4485.69787011     A.U. after   15 cycles
 SCF Done:  E(ULC-wPBE) =  -4485.70026549     A.U. after   14 cycles
 SCF Done:  E(ULC-wPBE) =  -4485.70225669     A.U. after   17 cycles
 SCF Done:  E(ULC-wPBE) =  -4485.70325419     A.U. after   15 cycles
 SCF Done:  E(ULC-wPBE) =  -4485.70395152     A.U. after   15 cycles
 SCF Done:  E(ULC-wPBE) =  -4485.70418411     A.U. after   13 cycles
 SCF Done:  E(ULC-wPBE) =  -4485.70462505     A.U. after   12 cycles
 SCF Done:  E(ULC-wPBE) =  -4485.70465554     A.U. after   11 cycles
 SCF Done:  E(ULC-wPBE) =  -4485.70466942     A.U. after   11 cycles
 SCF Done:  E(ULC-wPBE) =  -4485.70467850     A.U. after   11 cycles
 SCF Done:  E(ULC-wPBE) =  -4485.70468184     A.U. after   11 cycles
 SCF Done:  E(ULC-wPBE) =  -4485.70468307     A.U. after   11 cycles
 SCF Done:  E(ULC-wPBE) =  -4485.70468311     A.U. after    8 cycles
 SCF Done:  E(ULC-wPBE) =  -4485.70468329     A.U. after    7 cycles
 SCF Done:  E(ULC-wPBE) =  -4485.70468339     A.U. after    6 cycles
 SCF Done:  E(ULC-wPBE) =  -4485.70468341     A.U. after    5 cycles
 Optimization completed.
    -- Stationary point found.

                         Standard orientation:
 ---------------------------------------------------------------------
 Center     Atomic      Atomic             Coordinates (Angstroms)
 Number     Number       Type             X           Y           Z
 ---------------------------------------------------------------------
      1          6           0      -19.089229    1.226467   -0.721819
      2          6           0      -18.680430   -0.074491   -0.994734
      3          6           0      -17.340906   -0.419941   -0.822243
      4          6           0      -16.389824    0.501814   -0.368021
      5          6           0      -16.823849    1.822630   -0.109969
      6          8           0      -15.863737    2.692873    0.305990
      7          6           0      -16.235004    4.033167    0.562563
      8          6           0      -18.164553    2.175839   -0.284252
      9          6           0      -14.995349    0.059698   -0.158940
     10          6           0      -14.586268   -1.221904    0.139494
     11          6           0      -13.175276   -1.372818    0.189244
     12          6           0      -12.500201   -0.203586   -0.071618
     13         16           0      -13.613379    1.090329   -0.368587
     14          6           0      -11.042224    0.017236   -0.091694
     15          6           0      -10.176003   -1.004744   -0.492501
     16          6           0       -8.801705   -0.789039   -0.497491
     17          6           0       -8.231297    0.431364   -0.116372
     18          6           0       -9.114739    1.466183    0.275443
     19          8           0       -8.543908    2.646237    0.640056
     20          6           0       -9.387533    3.680898    1.109282
     21          6           0      -10.493690    1.251052    0.290258
     22          6           0       -6.766925    0.608795   -0.114636
     23          6           0       -6.006264    1.733915   -0.335657
     24          6           0       -4.606989    1.487648   -0.284358
     25          6           0       -4.290787    0.177135   -0.015640
     26         16           0       -5.735590   -0.759308    0.188140
     27          6           0       -2.954620   -0.431768    0.114480
     28          6           0       -1.874586    0.320549    0.586688
     29          6           0       -0.615715   -0.261711    0.692462
     30          6           0       -0.373594   -1.596460    0.345941
     31          6           0       -1.474405   -2.356429   -0.118195
     32          8           0       -1.222539   -3.652487   -0.447353
     33          6           0       -2.280913   -4.424508   -0.982828
     34          6           0       -2.737116   -1.773397   -0.234582
     35          6           0        0.982978   -2.165890    0.452922
     36          6           0        1.389067   -3.453041    0.721594
     37          6           0        2.802233   -3.596475    0.779803
     38          6           0        3.482169   -2.424064    0.547783
     39         16           0        2.366956   -1.133215    0.243439
     40          6           0        4.938567   -2.195791    0.527359
     41          6           0        5.496564   -0.974793    0.917179
     42          6           0        6.877274   -0.803382    0.898620
     43          6           0        7.754154   -1.818578    0.499623
     44          6           0        7.182509   -3.054833    0.110992
     45          8           0        8.050335   -4.028928   -0.277354
     46          6           0        7.516466   -5.249946   -0.752181
     47          6           0        5.798071   -3.228292    0.120586
     48          6           0        9.210581   -1.585638    0.471978
     49          6           0       10.254693   -2.458997    0.673984
     50          6           0       11.530696   -1.836008    0.604446
     51          6           0       11.468674   -0.487930    0.340891
     52         16           0        9.819619    0.014567    0.165745
     53          6           0       12.578762    0.471878    0.197139
     54          6           0       12.443043    1.812882    0.567229
     55          6           0       13.519239    2.684641    0.430059
     56          6           0       14.758647    2.272917   -0.071777
     57          6           0       14.891230    0.911825   -0.439377
     58          8           0       16.103324    0.531131   -0.927783
     59          6           0       16.252631   -0.799357   -1.384108
     60          6           0       13.812475    0.036006   -0.311017
     61          6           0       15.866494    3.236868   -0.224285
     62          6           0       17.225183    3.051062   -0.114732
     63          6           0       17.973966    4.250590   -0.293438
     64          6           0       17.178974    5.334739   -0.547443
     65         16           0       15.514772    4.905340   -0.573109
     66          1           0      -20.136086    1.519405   -0.856108
     67          1           0      -19.396590   -0.820692   -1.352917
     68          1           0      -17.010278   -1.435313   -1.063412
     69          1           0      -16.641008    4.525220   -0.341687
     70          1           0      -16.978336    4.100873    1.379440
     71          1           0      -15.313374    4.548476    0.871086
     72          1           0      -18.498432    3.195883   -0.078707
     73          1           0      -15.288092   -2.035043    0.342330
     74          1           0      -12.671471   -2.307907    0.447598
     75          1           0      -10.578983   -1.964219   -0.830049
     76          1           0       -8.138498   -1.594419   -0.832251
     77          1           0       -8.722518    4.516914    1.372066
     78          1           0      -10.099411    4.014782    0.330506
     79          1           0       -9.951926    3.370473    2.008875
     80          1           0      -11.167265    2.044589    0.623458
     81          1           0       -6.448560    2.708436   -0.543835
     82          1           0       -3.849450    2.253771   -0.470197
     83          1           0       -2.023492    1.357778    0.900879
     84          1           0        0.215237    0.336802    1.082082
     85          1           0       -2.672082   -3.985849   -1.920218
     86          1           0       -1.852911   -5.414424   -1.199858
     87          1           0       -3.111478   -4.539266   -0.260594
     88          1           0       -3.575017   -2.357710   -0.623230
     89          1           0        0.683720   -4.267625    0.887651
     90          1           0        3.305642   -4.537131    1.019574
     91          1           0        4.852132   -0.159911    1.262219
     92          1           0        7.298257    0.153525    1.226427
     93          1           0        8.381152   -5.867442   -1.037319
     94          1           0        6.937814   -5.777148    0.030263
     95          1           0        6.872881   -5.096647   -1.639032
     96          1           0        5.360729   -4.170956   -0.215651
     97          1           0       10.101117   -3.518111    0.882396
     98          1           0       12.472498   -2.364205    0.776918
     99          1           0       11.500068    2.175129    0.989149
    100          1           0       13.401585    3.728038    0.742917
    101          1           0       15.549206   -1.030524   -2.206359
    102          1           0       16.110142   -1.532451   -0.567160
    103          1           0       17.283624   -0.876053   -1.760230
    104          1           0       13.908479   -1.003864   -0.631124
    105          1           0       17.667837    2.076830    0.095232
    106          1           0       19.064392    4.304245   -0.235144
    107          1           0       17.480786    6.367847   -0.729262
 ---------------------------------------------------------------------

 The electronic state is 1-A.
 Alpha  occ. eigenvalues --  -88.25491 -88.25482 -88.25358 -88.25272 -88.25057
 Alpha  occ. eigenvalues --  -18.96635 -18.96367 -18.96301 -18.96287 -18.96086
 Alpha  occ. eigenvalues --  -10.12867 -10.12837 -10.12767 -10.12727 -10.12541
 Alpha  occ. eigenvalues --  -10.12262 -10.11975 -10.11944 -10.11893 -10.11770
 Alpha  occ. eigenvalues --  -10.09403 -10.09265 -10.09173 -10.09137 -10.09090
 Alpha  occ. eigenvalues --  -10.09089 -10.09002 -10.08994 -10.08773 -10.08365
 Alpha  occ. eigenvalues --  -10.08323 -10.08269 -10.08117 -10.08041 -10.07961
 Alpha  occ. eigenvalues --  -10.07904 -10.07826 -10.07788 -10.07599 -10.07004
 Alpha  occ. eigenvalues --  -10.06886 -10.06878 -10.06772 -10.06712 -10.06689
 Alpha  occ. eigenvalues --  -10.06537 -10.06501 -10.06451 -10.06404 -10.06255
 Alpha  occ. eigenvalues --  -10.06130 -10.06110 -10.06084 -10.06053 -10.06044
 Alpha  occ. eigenvalues --  -10.06042 -10.05964 -10.05960 -10.05923 -10.05778
 Alpha  occ. eigenvalues --  -10.05769 -10.05733 -10.05715 -10.05651 -10.05336
 Alpha  occ. eigenvalues --   -7.86027  -7.85981  -7.85903  -7.85818  -7.85611
 Alpha  occ. eigenvalues --   -5.87878  -5.87840  -5.87755  -5.87669  -5.87455
 Alpha  occ. eigenvalues --   -5.87388  -5.87334  -5.87262  -5.87176  -5.86989
 Alpha  occ. eigenvalues --   -5.86960  -5.86954  -5.86866  -5.86781  -5.86590
 Alpha  occ. eigenvalues --   -1.15711  -1.15442  -1.15367  -1.15357  -1.15167
 Alpha  occ. eigenvalues --   -0.98587  -0.98434  -0.98263  -0.98087  -0.97397
 Alpha  occ. eigenvalues --   -0.95923  -0.95550  -0.95077  -0.94628  -0.94304
 Alpha  occ. eigenvalues --   -0.89702  -0.89000  -0.88066  -0.87088  -0.86412
 Alpha  occ. eigenvalues --   -0.85217  -0.85136  -0.85039  -0.84986  -0.84806
 Alpha  occ. eigenvalues --   -0.82991  -0.82916  -0.82746  -0.82499  -0.82247
 Alpha  occ. eigenvalues --   -0.82069  -0.81878  -0.81059  -0.80591  -0.80315
 Alpha  occ. eigenvalues --   -0.79782  -0.79279  -0.78867  -0.77858  -0.76961
 Alpha  occ. eigenvalues --   -0.73646  -0.72515  -0.71526  -0.70868  -0.70446
 Alpha  occ. eigenvalues --   -0.69899  -0.69631  -0.69275  -0.68923  -0.68753
 Alpha  occ. eigenvalues --   -0.65596  -0.65469  -0.65231  -0.65053  -0.64785
 Alpha  occ. eigenvalues --   -0.64495  -0.64390  -0.64247  -0.63977  -0.63185
 Alpha  occ. eigenvalues --   -0.62567  -0.61803  -0.61493  -0.61096  -0.60638
 Alpha  occ. eigenvalues --   -0.59780  -0.59424  -0.59090  -0.58939  -0.58716
 Alpha  occ. eigenvalues --   -0.58104  -0.57898  -0.57443  -0.57353  -0.57093
 Alpha  occ. eigenvalues --   -0.57041  -0.56879  -0.56859  -0.56727  -0.56615
 Alpha  occ. eigenvalues --   -0.56265  -0.55351  -0.54750  -0.54167  -0.53863
 Alpha  occ. eigenvalues --   -0.53661  -0.53380  -0.53041  -0.52856  -0.52397
 Alpha  occ. eigenvalues --   -0.51352  -0.51093  -0.50963  -0.50855  -0.50844
 Alpha  occ. eigenvalues --   -0.50654  -0.50302  -0.50269  -0.49964  -0.49708
 Alpha  occ. eigenvalues --   -0.49411  -0.49109  -0.48752  -0.48534  -0.48441
 Alpha  occ. eigenvalues --   -0.48112  -0.47977  -0.47823  -0.47550  -0.47504
 Alpha  occ. eigenvalues --   -0.47135  -0.46921  -0.46736  -0.46698  -0.46447
 Alpha  occ. eigenvalues --   -0.46283  -0.46168  -0.45753  -0.45657  -0.45580
 Alpha  occ. eigenvalues --   -0.45428  -0.44930  -0.44636  -0.44479  -0.44423
 Alpha  occ. eigenvalues --   -0.44143  -0.42867  -0.42836  -0.42608  -0.42479
 Alpha  occ. eigenvalues --   -0.42239  -0.42148  -0.42111  -0.41918  -0.41822
 Alpha  occ. eigenvalues --   -0.41664  -0.41357  -0.40861  -0.40776  -0.40752
 Alpha  occ. eigenvalues --   -0.40434  -0.38554  -0.37956  -0.37046  -0.35900
 Alpha  occ. eigenvalues --   -0.34933  -0.33541  -0.33456  -0.33447  -0.33367
 Alpha  occ. eigenvalues --   -0.33056  -0.32438  -0.32266  -0.32179  -0.32070
 Alpha  occ. eigenvalues --   -0.31941  -0.30655  -0.29632  -0.28224  -0.26881
 Alpha  occ. eigenvalues --   -0.25898
 Alpha virt. eigenvalues --   -0.00259   0.00804   0.02243   0.03837   0.05344
 Alpha virt. eigenvalues --    0.06761   0.06962   0.07044   0.07204   0.07427
 Alpha virt. eigenvalues --    0.07600   0.08737   0.09918   0.10901   0.11781

  Beta  occ. eigenvalues --  -88.25491 -88.25482 -88.25358 -88.25272 -88.25057
  Beta  occ. eigenvalues --  -18.96635 -18.96367 -18.96301 -18.96287 -18.96086
  Beta  occ. eigenvalues --  -10.12867 -10.12837 -10.12767 -10.12727 -10.12541
  Beta  occ. eigenvalues --  -10.12262 -10.11975 -10.11944 -10.11893 -10.11770
  Beta  occ. eigenvalues --  -10.09403 -10.09265 -10.09173 -10.09137 -10.09090
  Beta  occ. eigenvalues --  -10.09089 -10.09002 -10.08994 -10.08773 -10.08365
  Beta  occ. eigenvalues --  -10.08323 -10.08269 -10.08117 -10.08041 -10.07961
  Beta  occ. eigenvalues --  -10.07904 -10.07826 -10.07788 -10.07599 -10.07004
  Beta  occ. eigenvalues --  -10.06886 -10.06878 -10.06772 -10.06712 -10.06689
  Beta  occ. eigenvalues --  -10.06537 -10.06501 -10.06451 -10.06404 -10.06255
  Beta  occ. eigenvalues --  -10.06130 -10.06110 -10.06084 -10.06053 -10.06044
  Beta  occ. eigenvalues --  -10.06042 -10.05964 -10.05960 -10.05923 -10.05778
  Beta  occ. eigenvalues --  -10.05769 -10.05733 -10.05715 -10.05651 -10.05336
  Beta  occ. eigenvalues --   -7.86027  -7.85981  -7.85903  -7.85818  -7.85611
  Beta  occ. eigenvalues --   -5.87878  -5.87840  -5.87755  -5.87669  -5.87455
  Beta  occ. eigenvalues --   -5.87388  -5.87334  -5.87262  -5.87176  -5.86989
  Beta  occ. eigenvalues --   -5.86960  -5.86954  -5.86866  -5.86781  -5.86590
  Beta  occ. eigenvalues --   -1.15711  -1.15442  -1.15367  -1.15357  -1.15167
  Beta  occ. eigenvalues --   -0.98587  -0.98434  -0.98263  -0.98087  -0.97397
  Beta  occ. eigenvalues --   -0.95923  -0.95550  -0.95077  -0.94628  -0.94304
  Beta  occ. eigenvalues --   -0.89702  -0.89000  -0.88066  -0.87088  -0.86412
  Beta  occ. eigenvalues --   -0.85217  -0.85136  -0.85039  -0.84986  -0.84806
  Beta  occ. eigenvalues --   -0.82991  -0.82916  -0.82746  -0.82499  -0.82247
  Beta  occ. eigenvalues --   -0.82069  -0.81878  -0.81059  -0.80591  -0.80315
  Beta  occ. eigenvalues --   -0.79782  -0.79279  -0.78867  -0.77858  -0.76961
  Beta  occ. eigenvalues --   -0.73646  -0.72515  -0.71526  -0.70868  -0.70446
  Beta  occ. eigenvalues --   -0.69899  -0.69631  -0.69275  -0.68923  -0.68753
  Beta  occ. eigenvalues --   -0.65596  -0.65469  -0.65231  -0.65053  -0.64785
  Beta  occ. eigenvalues --   -0.64495  -0.64390  -0.64247  -0.63977  -0.63185
  Beta  occ. eigenvalues --   -0.62567  -0.61803  -0.61493  -0.61096  -0.60638
  Beta  occ. eigenvalues --   -0.59780  -0.59424  -0.59090  -0.58939  -0.58716
  Beta  occ. eigenvalues --   -0.58104  -0.57898  -0.57443  -0.57353  -0.57093
  Beta  occ. eigenvalues --   -0.57041  -0.56879  -0.56859  -0.56727  -0.56615
  Beta  occ. eigenvalues --   -0.56265  -0.55351  -0.54750  -0.54167  -0.53863
  Beta  occ. eigenvalues --   -0.53661  -0.53380  -0.53041  -0.52856  -0.52397
  Beta  occ. eigenvalues --   -0.51352  -0.51093  -0.50963  -0.50855  -0.50844
  Beta  occ. eigenvalues --   -0.50654  -0.50302  -0.50269  -0.49964  -0.49708
  Beta  occ. eigenvalues --   -0.49411  -0.49109  -0.48752  -0.48534  -0.48441
  Beta  occ. eigenvalues --   -0.48112  -0.47977  -0.47823  -0.47550  -0.47504
  Beta  occ. eigenvalues --   -0.47135  -0.46921  -0.46736  -0.46698  -0.46447
  Beta  occ. eigenvalues --   -0.46283  -0.46168  -0.45753  -0.45657  -0.45580
  Beta  occ. eigenvalues --   -0.45428  -0.44930  -0.44636  -0.44479  -0.44423
  Beta  occ. eigenvalues --   -0.44143  -0.42867  -0.42836  -0.42608  -0.42479
  Beta  occ. eigenvalues --   -0.42239  -0.42148  -0.42111  -0.41918  -0.41822
  Beta  occ. eigenvalues --   -0.41664  -0.41357  -0.40861  -0.40776  -0.40752
  Beta  occ. eigenvalues --   -0.40434  -0.38554  -0.37956  -0.37046  -0.35900
  Beta  occ. eigenvalues --   -0.34933  -0.33541  -0.33456  -0.33447  -0.33367
  Beta  occ. eigenvalues --   -0.33056  -0.32438  -0.32266  -0.32179  -0.32070
  Beta  occ. eigenvalues --   -0.31941  -0.30655  -0.29632  -0.28224  -0.26881
  Beta  occ. eigenvalues --   -0.25898
  Beta virt. eigenvalues --   -0.00259   0.00804   0.02243   0.03837   0.05344
  Beta virt. eigenvalues --    0.06761   0.06962   0.07044   0.07204   0.07427
  Beta virt. eigenvalues --    0.07600   0.08737   0.09918   0.10901   0.11781

 Mulliken charges and spin densities:
               1          2
     1  C    0.020636  -0.000000
     2  C    0.022686   0.000000
     3  C   -0.003479   0.000000
     4  C    0.012134  -0.000000
     5  C    0.101534   0.000000
     6  O   -0.249463  -0.000000
     7  C    0.058676  -0.000000
     8  C   -0.032712   0.000000
     9  C   -0.131735  -0.000000
    10  C    0.029965   0.000000
    11  C    0.028508  -0.000000
    12  C   -0.159761   0.000000
    13  S    0.168933   0.000000
    14  C    0.062509  -0.000000
    15  C   -0.000756   0.000000
    16  C    0.011644  -0.000000
    17  C    0.040657  -0.000000
    18  C    0.099411   0.000000
    19  O   -0.248569  -0.000000
    20  C    0.058180  -0.000000
    21  C   -0.040828  -0.000000
    22  C   -0.142232   0.000000
    23  C    0.044717  -0.000000
    24  C    0.031883   0.000000
    25  C   -0.157199  -0.000000
    26  S    0.143410   0.000000
    27  C    0.065696   0.000000
    28  C   -0.002171  -0.000000
    29  C    0.011740  -0.000000
    30  C    0.040526  -0.000000
    31  C    0.098822   0.000000
    32  O   -0.249085   0.000000
    33  C    0.058104   0.000000
    34  C   -0.040901   0.000000
    35  C   -0.143492   0.000000
    36  C    0.044280   0.000000
    37  C    0.027423   0.000000
    38  C   -0.156325  -0.000000
    39  S    0.154037  -0.000000
    40  C    0.059277  -0.000000
    41  C    0.001388  -0.000000
    42  C    0.009988  -0.000000
    43  C    0.040110   0.000000
    44  C    0.101945   0.000000
    45  O   -0.248746   0.000000
    46  C    0.059590  -0.000000
    47  C   -0.040502  -0.000000
    48  C   -0.143374  -0.000000
    49  C    0.044102  -0.000000
    50  C    0.027370   0.000000
    51  C   -0.155754  -0.000000
    52  S    0.154642  -0.000000
    53  C    0.058130   0.000000
    54  C    0.000395  -0.000000
    55  C    0.012530   0.000000
    56  C    0.043535  -0.000000
    57  C    0.103086  -0.000000
    58  O   -0.247186   0.000000
    59  C    0.059566  -0.000000
    60  C   -0.041659   0.000000
    61  C   -0.147444  -0.000000
    62  C    0.017708   0.000000
    63  C    0.057819  -0.000000
    64  C   -0.135930   0.000000
    65  S    0.144636  -0.000000
    66  H   -0.008112   0.000000
    67  H   -0.011724  -0.000000
    68  H   -0.012342  -0.000000
    69  H    0.048210   0.000000
    70  H    0.048434  -0.000000
    71  H    0.054692  -0.000000
    72  H   -0.006140   0.000000
    73  H   -0.008654   0.000000
    74  H   -0.011643   0.000000
    75  H   -0.021454   0.000000
    76  H   -0.008858  -0.000000
    77  H    0.054125   0.000000
    78  H    0.048271   0.000000
    79  H    0.050814   0.000000
    80  H   -0.006471  -0.000000
    81  H   -0.013691   0.000000
    82  H   -0.010419   0.000000
    83  H   -0.020296   0.000000
    84  H   -0.005901  -0.000000
    85  H    0.051162  -0.000000
    86  H    0.053343  -0.000000
    87  H    0.049351  -0.000000
    88  H   -0.007014   0.000000
    89  H   -0.014237   0.000000
    90  H   -0.014579  -0.000000
    91  H   -0.014025   0.000000
    92  H   -0.005590   0.000000
    93  H    0.053615   0.000000
    94  H    0.045992   0.000000
    95  H    0.051090  -0.000000
    96  H   -0.013144   0.000000
    97  H   -0.014904  -0.000000
    98  H   -0.014690   0.000000
    99  H   -0.014386  -0.000000
   100  H   -0.006110  -0.000000
   101  H    0.050520   0.000000
   102  H    0.045344  -0.000000
   103  H    0.054004   0.000000
   104  H   -0.013607  -0.000000
   105  H   -0.011346   0.000000
   106  H   -0.007940   0.000000
   107  H    0.025686  -0.000000
 Sum of Mulliken charges =  -0.00000  -0.00000

 Dipole moment (field-independent basis, Debye):
    X=             -4.4820    Y=             -1.9755    Z=             -0.5623  Tot=              4.9302
 Quadrupole moment (field-independent basis, Debye-Ang):
   XX=           -304.6278   YY=           -338.9467   ZZ=           -421.1469
   XY=            -72.5110   XZ=            -16.8888   YZ=             15.5040

 Normal termination of Gaussian 16 at Fri Jul 24 21:05:44 2020.
