 Gaussian 16, Revision A.03,
 Gaussian 16:  EM64L-G16RevA.03 25-Dec-2016

 ---------------------------------------------------------------
 #P uLC-wPBE/cc-pVDZ iop(3/107=0216700000, 3/108=0216700000) opt
 ---------------------------------------------------------------

 --------------
 H30 C56 S7 N14
 --------------
 Symbolic Z-matrix:
 Charge =  0 Multiplicity = 1

 SCF Done:  E(ULC-wPBE) =  -5702.45251733     A.U. after   16 cycles
 SCF Done:  E(ULC-wPBE) =  -5702.54755709     A.U. after   14 cycles
 SCF Done:  E(ULC-wPBE) =  -5702.63479842     A.U. after   15 cycles
 SCF Done:  E(ULC-wPBE) =  -5702.65588425     A.U. after   15 cycles
 SCF Done:  E(ULC-wPBE) =  -5702.65966885     A.U. after   13 cycles
 SCF Done:  E(ULC-wPBE) =  -5702.66001443     A.U. after   13 cycles
 SCF Done:  E(ULC-wPBE) =  -5702.66031367     A.U. after   12 cycles
 SCF Done:  E(ULC-wPBE) =  -5702.66035597     A.U. after   13 cycles
 SCF Done:  E(ULC-wPBE) =  -5702.66038745     A.U. after   11 cycles
 SCF Done:  E(ULC-wPBE) =  -5702.66040012     A.U. after   11 cycles
 SCF Done:  E(ULC-wPBE) =  -5702.66041274     A.U. after   12 cycles
 SCF Done:  E(ULC-wPBE) =  -5702.66041801     A.U. after   11 cycles
 SCF Done:  E(ULC-wPBE) =  -5702.66042027     A.U. after   11 cycles
 SCF Done:  E(ULC-wPBE) =  -5702.66042154     A.U. after   10 cycles
 SCF Done:  E(ULC-wPBE) =  -5702.66042193     A.U. after    8 cycles
 SCF Done:  E(ULC-wPBE) =  -5702.66042172     A.U. after    8 cycles
 SCF Done:  E(ULC-wPBE) =  -5702.66042200     A.U. after    7 cycles
 SCF Done:  E(ULC-wPBE) =  -5702.66042202     A.U. after    6 cycles
 Optimization completed.
    -- Stationary point found.

                         Standard orientation:
 ---------------------------------------------------------------------
 Center     Atomic      Atomic             Coordinates (Angstroms)
 Number     Number       Type             X           Y           Z
 ---------------------------------------------------------------------
      1          6           0      -25.897305    2.958060   -1.619907
      2          6           0      -25.279502    1.796156   -1.153468
      3          7           0      -23.963357    1.722673   -0.924012
      4          6           0      -23.257136    2.843575   -1.171338
      5          7           0      -23.741930    4.017296   -1.621128
      6          6           0      -25.061470    4.055729   -1.838862
      7          6           0      -21.810400    2.775568   -0.925193
      8          6           0      -20.870191    3.771506   -1.093812
      9          6           0      -19.558438    3.348167   -0.756550
     10          6           0      -19.508630    2.030645   -0.332444
     11         16           0      -21.089453    1.303073   -0.355886
     12          6           0      -18.327464    1.268855    0.093372
     13          6           0      -18.379009    0.236199    1.047055
     14          7           0      -17.308454   -0.455169    1.441567
     15          6           0      -16.136073   -0.101781    0.881018
     16          7           0      -15.954596    0.865522   -0.039484
     17          6           0      -17.046560    1.527099   -0.425912
     18          6           0      -14.942623   -0.840534    1.308672
     19          6           0      -14.859668   -1.863143    2.232181
     20          6           0      -13.535506   -2.345377    2.396659
     21          6           0      -12.617001   -1.685979    1.596636
     22         16           0      -13.391087   -0.465870    0.626529
     23          6           0      -11.169914   -1.920305    1.510435
     24          6           0      -10.241995   -0.908601    1.207746
     25          7           0       -8.926732   -1.120590    1.135892
     26          6           0       -8.509623   -2.377129    1.384463
     27          7           0       -9.294462   -3.430401    1.683821
     28          6           0      -10.605407   -3.189670    1.733372
     29          6           0       -7.064076   -2.620032    1.319138
     30          6           0       -6.389374   -3.806080    1.527986
     31          6           0       -4.984796   -3.669404    1.381608
     32          6           0       -4.597969   -2.378376    1.062018
     33         16           0       -5.976370   -1.323745    0.932599
     34          6           0       -3.235081   -1.878645    0.840232
     35          6           0       -2.215513   -2.697377    0.323208
     36          7           0       -0.964785   -2.274478    0.132899
     37          6           0       -0.713889   -0.988656    0.448713
     38          7           0       -1.603338   -0.101944    0.934809
     39          6           0       -2.841534   -0.559178    1.128095
     40          6           0        0.657923   -0.511462    0.240821
     41          6           0        1.167003    0.748444    0.483633
     42          6           0        2.545533    0.852193    0.164491
     43          6           0        3.078520   -0.330732   -0.320375
     44         16           0        1.873597   -1.585366   -0.377206
     45          6           0        4.460361   -0.583901   -0.747946
     46          6           0        5.552770    0.096296   -0.181226
     47          7           0        6.814750   -0.099130   -0.566551
     48          6           0        7.008898   -1.013907   -1.536925
     49          7           0        6.052538   -1.740150   -2.146698
     50          6           0        4.799678   -1.511001   -1.749937
     51          6           0        8.393527   -1.239398   -1.966460
     52          6           0        8.854156   -2.112089   -2.931742
     53          6           0       10.263975   -2.064712   -3.083990
     54          6           0       10.869335   -1.155312   -2.232466
     55         16           0        9.691681   -0.344867   -1.239881
     56          6           0       12.300793   -0.848504   -2.117131
     57          6           0       13.175961   -0.950255   -3.214080
     58          7           0       14.483789   -0.700725   -3.137190
     59          6           0       14.944015   -0.316020   -1.930470
     60          7           0       14.208790   -0.165542   -0.811454
     61          6           0       12.907296   -0.438812   -0.916936
     62          6           0       16.379124   -0.032423   -1.823608
     63          6           0       17.337014   -0.102912   -2.815200
     64          6           0       18.632063    0.243569   -2.350635
     65          6           0       18.653087    0.576406   -1.006248
     66         16           0       17.065073    0.454463   -0.304873
     67          6           0       19.810919    0.983525   -0.199545
     68          6           0       21.109683    0.515429   -0.469509
     69          7           0       22.184315    0.882717    0.229265
     70          6           0       21.966488    1.735377    1.250771
     71          7           0       20.772390    2.241200    1.618743
     72          6           0       19.719824    1.866641    0.890178
     73          6           0       23.134337    2.148863    2.035710
     74          6           0       24.450833    1.769813    1.863547
     75          6           0       25.322082    2.370464    2.814422
     76          6           0       24.649769    3.194075    3.690302
     77         16           0       22.956720    3.248313    3.370189
     78          1           0      -26.976412    3.006448   -1.803781
     79          1           0      -25.859383    0.881933   -0.953069
     80          1           0      -25.464335    5.012486   -2.206164
     81          1           0      -21.146186    4.770496   -1.444414
     82          1           0      -18.677400    3.997969   -0.795508
     83          1           0      -19.336066   -0.037264    1.519732
     84          1           0      -16.902147    2.297248   -1.199304
     85          1           0      -15.741402   -2.229954    2.766110
     86          1           0      -13.255932   -3.134894    3.102683
     87          1           0      -10.580362    0.123612    1.023722
     88          1           0      -11.251195   -4.054799    1.950096
     89          1           0       -6.915305   -4.730518    1.784676
     90          1           0       -4.271989   -4.487162    1.533773
     91          1           0       -2.426542   -3.739779    0.038648
     92          1           0       -3.565973    0.159224    1.544334
     93          1           0        0.541471    1.557108    0.873342
     94          1           0        3.127086    1.775620    0.259644
     95          1           0        5.397827    0.823212    0.630997
     96          1           0        4.013820   -2.089764   -2.261465
     97          1           0        8.174978   -2.760855   -3.492918
     98          1           0       10.825459   -2.699576   -3.777994
     99          1           0       12.792660   -1.236567   -4.205884
    100          1           0       12.311187   -0.335587    0.003901
    101          1           0       17.084694   -0.390543   -3.840262
    102          1           0       19.522038    0.276954   -2.988414
    103          1           0       21.282372   -0.203187   -1.286042
    104          1           0       18.747931    2.297480    1.180183
    105          1           0       24.751624    1.079201    1.069814
    106          1           0       26.403640    2.202589    2.852811
    107          1           0       25.065923    3.778252    4.516463
 ---------------------------------------------------------------------

 Alpha  occ. eigenvalues --  -10.07114 -10.06984 -10.06680 -10.06437 -10.06365
 Alpha  occ. eigenvalues --  -10.06291 -10.06275 -10.06261 -10.06182 -10.06171
 Alpha  occ. eigenvalues --  -10.06086 -10.05984 -10.05957 -10.05664 -10.05474
 Alpha  occ. eigenvalues --  -10.05109 -10.04716 -10.04678 -10.04126 -10.04064
 Alpha  occ. eigenvalues --  -10.03981 -10.03938 -10.03881 -10.03866 -10.03792
 Alpha  occ. eigenvalues --  -10.03751 -10.03690 -10.03575 -10.03430 -10.03320
 Alpha  occ. eigenvalues --  -10.02427 -10.02406  -7.83786  -7.83718  -7.83635
 Alpha  occ. eigenvalues --   -7.83546  -7.83412  -7.83109  -7.82162  -5.85770
 Alpha  occ. eigenvalues --   -5.85702  -5.85619  -5.85530  -5.85396  -5.85297
 Alpha  occ. eigenvalues --   -5.85229  -5.85146  -5.85093  -5.85057  -5.84929
 Alpha  occ. eigenvalues --   -5.84923  -5.84860  -5.84777  -5.84688  -5.84619
 Alpha  occ. eigenvalues --   -5.84554  -5.84251  -5.84135  -5.83661  -5.83325
 Alpha  occ. eigenvalues --   -1.04670  -1.04591  -1.04567  -1.04499  -1.04391
 Alpha  occ. eigenvalues --   -1.04188  -1.03609  -0.95516  -0.95340  -0.95166
 Alpha  occ. eigenvalues --   -0.95061  -0.94981  -0.94941  -0.94924  -0.94842
 Alpha  occ. eigenvalues --   -0.94749  -0.94741  -0.94606  -0.94431  -0.93999
 Alpha  occ. eigenvalues --   -0.93124  -0.89174  -0.88768  -0.88248  -0.87636
 Alpha  occ. eigenvalues --   -0.86971  -0.86313  -0.86032  -0.82498  -0.81800
 Alpha  occ. eigenvalues --   -0.81153  -0.80876  -0.80779  -0.80766  -0.80492
 Alpha  occ. eigenvalues --   -0.80275  -0.80207  -0.79551  -0.79018  -0.78557
 Alpha  occ. eigenvalues --   -0.77541  -0.76624  -0.74719  -0.73876  -0.73513
 Alpha  occ. eigenvalues --   -0.73346  -0.73047  -0.72862  -0.72701  -0.72600
 Alpha  occ. eigenvalues --   -0.72424  -0.72053  -0.71542  -0.70734  -0.70249
 Alpha  occ. eigenvalues --   -0.69809  -0.64414  -0.64259  -0.64125  -0.64022
 Alpha  occ. eigenvalues --   -0.63940  -0.63565  -0.63471  -0.63270  -0.63112
 Alpha  occ. eigenvalues --   -0.62949  -0.62757  -0.62542  -0.62325  -0.61601
 Alpha  occ. eigenvalues --   -0.60363  -0.60311  -0.60018  -0.59760  -0.59496
 Alpha  occ. eigenvalues --   -0.59006  -0.58830  -0.58740  -0.58517  -0.58430
 Alpha  occ. eigenvalues --   -0.58329  -0.58172  -0.57969  -0.57601  -0.56965
 Alpha  occ. eigenvalues --   -0.55658  -0.54951  -0.54339  -0.53703  -0.53089
 Alpha  occ. eigenvalues --   -0.52815  -0.52506  -0.52463  -0.52384  -0.52269
 Alpha  occ. eigenvalues --   -0.52222  -0.51987  -0.51917  -0.51427  -0.49838
 Alpha  occ. eigenvalues --   -0.49716  -0.49601  -0.49555  -0.49449  -0.49182
 Alpha  occ. eigenvalues --   -0.48761  -0.48497  -0.48433  -0.48374  -0.48330
 Alpha  occ. eigenvalues --   -0.48292  -0.48138  -0.47921  -0.47835  -0.47536
 Alpha  occ. eigenvalues --   -0.47166  -0.46937  -0.46808  -0.46696  -0.46592
 Alpha  occ. eigenvalues --   -0.46476  -0.46466  -0.46383  -0.46170  -0.46034
 Alpha  occ. eigenvalues --   -0.45853  -0.45752  -0.45688  -0.45600  -0.45480
 Alpha  occ. eigenvalues --   -0.45254  -0.45107  -0.44923  -0.44159  -0.42422
 Alpha  occ. eigenvalues --   -0.42270  -0.42258  -0.42147  -0.42002  -0.41702
 Alpha  occ. eigenvalues --   -0.41161  -0.40827  -0.40588  -0.40267  -0.40196
 Alpha  occ. eigenvalues --   -0.40193  -0.40103  -0.39998  -0.39825  -0.39809
 Alpha  occ. eigenvalues --   -0.39279  -0.38915  -0.38404  -0.38281  -0.38158
 Alpha  occ. eigenvalues --   -0.38123  -0.38026  -0.37926  -0.37820  -0.37235
 Alpha  occ. eigenvalues --   -0.36963  -0.36307  -0.33609  -0.33537  -0.33463
 Alpha  occ. eigenvalues --   -0.33372  -0.33251  -0.33114  -0.32944  -0.32743
 Alpha  occ. eigenvalues --   -0.32593  -0.32482  -0.32368  -0.32309  -0.31962
 Alpha  occ. eigenvalues --   -0.31776  -0.31704  -0.31257  -0.30497  -0.29398
 Alpha  occ. eigenvalues --   -0.28335  -0.27457  -0.26831
 Alpha virt. eigenvalues --   -0.04395  -0.03686  -0.02745  -0.01654  -0.00499
 Alpha virt. eigenvalues --    0.00457   0.00587   0.00627   0.00687   0.00720
 Alpha virt. eigenvalues --    0.00824   0.01014   0.01466   0.01616   0.04052

  Beta  occ. eigenvalues --  -88.23426 -88.23356 -88.23273 -88.23184 -88.23050
  Beta  occ. eigenvalues --  -88.22747 -88.21793 -14.14011 -14.13954 -14.13923
  Beta  occ. eigenvalues --  -14.13914 -14.13885 -14.13871 -14.13847 -14.13754
  Beta  occ. eigenvalues --  -14.13735 -14.13650 -14.13504 -14.13474 -14.12913
  Beta  occ. eigenvalues --  -14.12896 -10.11129 -10.10976 -10.10901 -10.10809
  Beta  occ. eigenvalues --  -10.10702 -10.10502 -10.09939 -10.08591 -10.08575
  Beta  occ. eigenvalues --  -10.08543 -10.08498 -10.08459 -10.08435 -10.08382
  Beta  occ. eigenvalues --  -10.08332 -10.08276 -10.08233 -10.08091 -10.08059
  Beta  occ. eigenvalues --  -10.07606 -10.07571 -10.07357 -10.07289 -10.07207
  Beta  occ. eigenvalues --  -10.07114 -10.06984 -10.06680 -10.06437 -10.06365
  Beta  occ. eigenvalues --  -10.06291 -10.06275 -10.06261 -10.06182 -10.06171
  Beta  occ. eigenvalues --  -10.06086 -10.05984 -10.05957 -10.05664 -10.05474
  Beta  occ. eigenvalues --  -10.05109 -10.04716 -10.04678 -10.04126 -10.04064
  Beta  occ. eigenvalues --  -10.03981 -10.03938 -10.03881 -10.03866 -10.03792
  Beta  occ. eigenvalues --  -10.03751 -10.03690 -10.03575 -10.03430 -10.03320
  Beta  occ. eigenvalues --  -10.02427 -10.02406  -7.83786  -7.83718  -7.83635
  Beta  occ. eigenvalues --   -7.83546  -7.83412  -7.83109  -7.82162  -5.85770
  Beta  occ. eigenvalues --   -5.85702  -5.85619  -5.85530  -5.85396  -5.85297
  Beta  occ. eigenvalues --   -5.85229  -5.85146  -5.85093  -5.85057  -5.84929
  Beta  occ. eigenvalues --   -5.84923  -5.84860  -5.84777  -5.84688  -5.84619
  Beta  occ. eigenvalues --   -5.84554  -5.84251  -5.84135  -5.83661  -5.83325
  Beta  occ. eigenvalues --   -1.04670  -1.04591  -1.04567  -1.04499  -1.04391
  Beta  occ. eigenvalues --   -1.04188  -1.03609  -0.95516  -0.95340  -0.95166
  Beta  occ. eigenvalues --   -0.95061  -0.94981  -0.94941  -0.94924  -0.94842
  Beta  occ. eigenvalues --   -0.94749  -0.94741  -0.94606  -0.94431  -0.93999
  Beta  occ. eigenvalues --   -0.93124  -0.89174  -0.88768  -0.88248  -0.87636
  Beta  occ. eigenvalues --   -0.86971  -0.86313  -0.86032  -0.82498  -0.81800
  Beta  occ. eigenvalues --   -0.81153  -0.80876  -0.80779  -0.80766  -0.80492
  Beta  occ. eigenvalues --   -0.80275  -0.80207  -0.79551  -0.79018  -0.78557
  Beta  occ. eigenvalues --   -0.77541  -0.76624  -0.74719  -0.73876  -0.73513
  Beta  occ. eigenvalues --   -0.73346  -0.73047  -0.72862  -0.72701  -0.72600
  Beta  occ. eigenvalues --   -0.72424  -0.72053  -0.71542  -0.70734  -0.70249
  Beta  occ. eigenvalues --   -0.69809  -0.64414  -0.64259  -0.64125  -0.64022
  Beta  occ. eigenvalues --   -0.63940  -0.63565  -0.63471  -0.63270  -0.63112
  Beta  occ. eigenvalues --   -0.62949  -0.62757  -0.62542  -0.62325  -0.61601
  Beta  occ. eigenvalues --   -0.60363  -0.60311  -0.60018  -0.59760  -0.59496
  Beta  occ. eigenvalues --   -0.59006  -0.58830  -0.58740  -0.58517  -0.58430
  Beta  occ. eigenvalues --   -0.58329  -0.58172  -0.57969  -0.57601  -0.56965
  Beta  occ. eigenvalues --   -0.55658  -0.54951  -0.54339  -0.53703  -0.53089
  Beta  occ. eigenvalues --   -0.52815  -0.52506  -0.52463  -0.52384  -0.52269
  Beta  occ. eigenvalues --   -0.52222  -0.51987  -0.51917  -0.51427  -0.49838
  Beta  occ. eigenvalues --   -0.49716  -0.49601  -0.49555  -0.49449  -0.49182
  Beta  occ. eigenvalues --   -0.48761  -0.48497  -0.48433  -0.48374  -0.48330
  Beta  occ. eigenvalues --   -0.48292  -0.48138  -0.47921  -0.47835  -0.47536
  Beta  occ. eigenvalues --   -0.47166  -0.46937  -0.46808  -0.46696  -0.46592
  Beta  occ. eigenvalues --   -0.46476  -0.46466  -0.46383  -0.46170  -0.46034
  Beta  occ. eigenvalues --   -0.45853  -0.45752  -0.45688  -0.45600  -0.45480
  Beta  occ. eigenvalues --   -0.45254  -0.45107  -0.44923  -0.44159  -0.42422
  Beta  occ. eigenvalues --   -0.42270  -0.42258  -0.42147  -0.42002  -0.41702
  Beta  occ. eigenvalues --   -0.41161  -0.40827  -0.40588  -0.40267  -0.40196
  Beta  occ. eigenvalues --   -0.40193  -0.40103  -0.39998  -0.39825  -0.39809
  Beta  occ. eigenvalues --   -0.39279  -0.38915  -0.38404  -0.38281  -0.38158
  Beta  occ. eigenvalues --   -0.38123  -0.38026  -0.37926  -0.37820  -0.37235
  Beta  occ. eigenvalues --   -0.36963  -0.36307  -0.33609  -0.33537  -0.33463
  Beta  occ. eigenvalues --   -0.33372  -0.33251  -0.33114  -0.32944  -0.32743
  Beta  occ. eigenvalues --   -0.32593  -0.32482  -0.32368  -0.32309  -0.31962
  Beta  occ. eigenvalues --   -0.31776  -0.31704  -0.31257  -0.30497  -0.29398
  Beta  occ. eigenvalues --   -0.28335  -0.27457  -0.26831
  Beta virt. eigenvalues --   -0.04395  -0.03686  -0.02745  -0.01654  -0.00499
  Beta virt. eigenvalues --    0.00457   0.00587   0.00627   0.00687   0.00720
  Beta virt. eigenvalues --    0.00824   0.01014   0.01466   0.01616   0.04052

 Mulliken charges and spin densities:
               1          2
     1  C   -0.064580   0.000000
     2  C    0.121625  -0.000000
     3  N   -0.202813   0.000000
     4  C    0.187812  -0.000000
     5  N   -0.188204  -0.000000
     6  C    0.120350  -0.000000
     7  C   -0.162759  -0.000000
     8  C    0.071758   0.000000
     9  C    0.036168  -0.000000
    10  C   -0.165087  -0.000000
    11  S    0.200335   0.000000
    12  C   -0.056930   0.000000
    13  C    0.132099  -0.000000
    14  N   -0.183884  -0.000000
    15  C    0.188024   0.000000
    16  N   -0.198878  -0.000000
    17  C    0.134703   0.000000
    18  C   -0.163067   0.000000
    19  C    0.070902  -0.000000
    20  C    0.036713   0.000000
    21  C   -0.165097  -0.000000
    22  S    0.201011  -0.000000
    23  C   -0.057196   0.000000
    24  C    0.133606  -0.000000
    25  N   -0.198288  -0.000000
    26  C    0.188091   0.000000
    27  N   -0.184554   0.000000
    28  C    0.133220  -0.000000
    29  C   -0.163083   0.000000
    30  C    0.070718  -0.000000
    31  C    0.036761   0.000000
    32  C   -0.165112  -0.000000
    33  S    0.201400   0.000000
    34  C   -0.057201  -0.000000
    35  C    0.134590   0.000000
    36  N   -0.198967  -0.000000
    37  C    0.187992   0.000000
    38  N   -0.183794  -0.000000
    39  C    0.132087   0.000000
    40  C   -0.163118  -0.000000
    41  C    0.071016   0.000000
    42  C    0.036796  -0.000000
    43  C   -0.164980   0.000000
    44  S    0.200093   0.000000
    45  C   -0.057274   0.000000
    46  C    0.134581  -0.000000
    47  N   -0.198788   0.000000
    48  C    0.187906   0.000000
    49  N   -0.183952   0.000000
    50  C    0.131875  -0.000000
    51  C   -0.163282  -0.000000
    52  C    0.070755  -0.000000
    53  C    0.036537   0.000000
    54  C   -0.164684  -0.000000
    55  S    0.200660   0.000000
    56  C   -0.057733   0.000000
    57  C    0.132695  -0.000000
    58  N   -0.184788   0.000000
    59  C    0.187751   0.000000
    60  N   -0.197920  -0.000000
    61  C    0.133156  -0.000000
    62  C   -0.163967  -0.000000
    63  C    0.070094   0.000000
    64  C    0.036576   0.000000
    65  C   -0.163777  -0.000000
    66  S    0.200814   0.000000
    67  C   -0.059209   0.000000
    68  C    0.130611   0.000000
    69  N   -0.184966   0.000000
    70  C    0.196482  -0.000000
    71  N   -0.197612   0.000000
    72  C    0.131009   0.000000
    73  C   -0.171046   0.000000
    74  C    0.043531  -0.000000
    75  C    0.067043   0.000000
    76  C   -0.128881  -0.000000
    77  S    0.191012   0.000000
    78  H    0.003156  -0.000000
    79  H    0.016089   0.000000
    80  H    0.013795   0.000000
    81  H   -0.008969  -0.000000
    82  H   -0.010062   0.000000
    83  H    0.013713  -0.000000
    84  H    0.009741  -0.000000
    85  H   -0.008535   0.000000
    86  H   -0.010220  -0.000000
    87  H    0.015884  -0.000000
    88  H    0.007475  -0.000000
    89  H   -0.009135  -0.000000
    90  H   -0.010044  -0.000000
    91  H    0.009490  -0.000000
    92  H    0.013953   0.000000
    93  H   -0.008449   0.000000
    94  H   -0.009878   0.000000
    95  H    0.009590  -0.000000
    96  H    0.013619   0.000000
    97  H   -0.008941   0.000000
    98  H   -0.010585   0.000000
    99  H    0.006651   0.000000
   100  H    0.015600   0.000000
   101  H   -0.010425   0.000000
   102  H   -0.011364   0.000000
   103  H    0.005421   0.000000
   104  H    0.014133  -0.000000
   105  H   -0.009951   0.000000
   106  H   -0.009965   0.000000
   107  H    0.022722  -0.000000
 Sum of Mulliken charges =  -0.00000  -0.00000

 Dipole moment (field-independent basis, Debye):
    X=            -12.8543    Y=              0.0056    Z=             -1.2449  Tot=             12.9145
 Quadrupole moment (field-independent basis, Debye-Ang):
   XX=           -308.6101   YY=           -464.0363   ZZ=           -473.6650
   XY=            -41.0948   XZ=             -6.3761   YZ=             -1.7748

 Normal termination of Gaussian 16 at Sat Jul 25 05:59:48 2020.
