 Gaussian 16, Revision A.03,
 Gaussian 16:  EM64L-G16RevA.03 25-Dec-2016

 ---------------------------------------------------------------
 #P uLC-wPBE/cc-pVDZ iop(3/107=0346300000, 3/108=0346300000) opt
 ---------------------------------------------------------------

 -----------
 H62 C70 O10
 -----------
 Symbolic Z-matrix:
 Charge =  0 Multiplicity = 1

 SCF Done:  E(ULC-wPBE) =  -3454.37004577     A.U. after   17 cycles
 SCF Done:  E(ULC-wPBE) =  -3454.46575924     A.U. after   13 cycles
 SCF Done:  E(ULC-wPBE) =  -3454.56560145     A.U. after   15 cycles
 SCF Done:  E(ULC-wPBE) =  -3454.59436332     A.U. after   13 cycles
 SCF Done:  E(ULC-wPBE) =  -3454.60143300     A.U. after   14 cycles
 SCF Done:  E(ULC-wPBE) =  -3454.60384256     A.U. after   15 cycles
 SCF Done:  E(ULC-wPBE) =  -3454.60540189     A.U. after   17 cycles
 SCF Done:  E(ULC-wPBE) =  -3454.60603651     A.U. after   14 cycles
 SCF Done:  E(ULC-wPBE) =  -3454.60624112     A.U. after   13 cycles
 SCF Done:  E(ULC-wPBE) =  -3454.60634257     A.U. after   11 cycles
 SCF Done:  E(ULC-wPBE) =  -3454.60637036     A.U. after   11 cycles
 SCF Done:  E(ULC-wPBE) =  -3454.60639051     A.U. after   11 cycles
 SCF Done:  E(ULC-wPBE) =  -3454.60639928     A.U. after   11 cycles
 SCF Done:  E(ULC-wPBE) =  -3454.60640257     A.U. after   11 cycles
 SCF Done:  E(ULC-wPBE) =  -3454.60640343     A.U. after   10 cycles
 SCF Done:  E(ULC-wPBE) =  -3454.60640355     A.U. after   10 cycles
 SCF Done:  E(ULC-wPBE) =  -3454.60640362     A.U. after    6 cycles
 SCF Done:  E(ULC-wPBE) =  -3454.60640370     A.U. after    6 cycles
 SCF Done:  E(ULC-wPBE) =  -3454.60640371     A.U. after    5 cycles
 Optimization completed on the basis of negligible forces.
    -- Stationary point found.

                         Standard orientation:
 ---------------------------------------------------------------------
 Center     Atomic      Atomic             Coordinates (Angstroms)
 Number     Number       Type             X           Y           Z
 ---------------------------------------------------------------------
      1          6           0       20.772858    0.217358   -1.008232
      2          6           0       20.153903   -0.898420   -0.448297
      3          6           0       18.765265   -0.932785   -0.313377
      4          8           0       18.086906   -1.982973    0.223472
      5          6           0       18.831784   -3.080016    0.699187
      6          6           0       17.983161    0.157873   -0.740854
      7          6           0       18.632231    1.260550   -1.291065
      8          6           0       20.017216    1.301027   -1.432369
      9          6           0       16.497846    0.126095   -0.628917
     10          6           0       15.753938   -0.879865   -1.239110
     11          6           0       14.364723   -0.912697   -1.171883
     12          6           0       13.676175    0.078395   -0.474242
     13          6           0       14.407383    1.095263    0.150183
     14          6           0       15.799295    1.123800    0.077688
     15          8           0       16.561048    2.080450    0.673134
     16          6           0       15.908217    3.083166    1.417456
     17          6           0       12.191005    0.068073   -0.388684
     18          6           0       11.511052   -1.131247   -0.148295
     19          6           0       10.119588   -1.161942   -0.069142
     20          8           0        9.408456   -2.295734    0.172939
     21          6           0       10.117958   -3.496596    0.373960
     22          6           0        9.368882    0.018622   -0.231247
     23          6           0       10.063256    1.202642   -0.464363
     24          6           0       11.451542    1.239167   -0.546116
     25          6           0        7.880891   -0.001053   -0.179069
     26          6           0        7.144458   -0.821497   -1.029551
     27          6           0        5.753523   -0.836927   -1.017530
     28          6           0        5.054520   -0.017120   -0.133352
     29          6           0        5.777243    0.810687    0.733569
     30          6           0        7.171199    0.821942    0.716415
     31          8           0        7.924079    1.596352    1.544210
     32          6           0        7.258970    2.401620    2.489465
     33          6           0        3.567127   -0.018632   -0.103921
     34          6           0        2.860863    1.187157   -0.024790
     35          6           0        1.466963    1.200034   -0.001326
     36          8           0        0.729491    2.341444    0.065749
     37          6           0        1.411688    3.571386    0.145423
     38          6           0        0.740970   -0.005381   -0.053259
     39          6           0        1.461286   -1.194709   -0.125672
     40          6           0        2.851956   -1.213726   -0.155988
     41          6           0       -0.748336   -0.009127   -0.056275
     42          6           0       -1.465348    0.684489   -1.027553
     43          6           0       -2.855811    0.669476   -1.068660
     44          6           0       -3.574125   -0.047227   -0.113271
     45          6           0       -2.871239   -0.746123    0.874899
     46          6           0       -1.477542   -0.732495    0.906964
     47          8           0       -0.743209   -1.399977    1.837803
     48          6           0       -1.428871   -2.116055    2.838624
     49          6           0       -5.061384   -0.075299   -0.138366
     50          6           0       -5.790644    0.072115    1.047136
     51          6           0       -7.184609    0.052204    1.037196
     52          8           0       -7.943666    0.199599    2.156709
     53          6           0       -7.285165    0.341265    3.393944
     54          6           0       -7.887537   -0.121127   -0.170593
     55          6           0       -7.144489   -0.272050   -1.338397
     56          6           0       -5.753581   -0.246459   -1.335852
     57          6           0       -9.376471   -0.119333   -0.203715
     58          6           0      -10.103590    0.962273    0.286083
     59          6           0      -11.493402    0.999075    0.236649
     60          6           0      -12.200925   -0.071555   -0.307532
     61          6           0      -11.487882   -1.171093   -0.798318
     62          6           0      -10.094857   -1.200029   -0.750861
     63          8           0       -9.351389   -2.238023   -1.219605
     64          6           0      -10.027344   -3.358431   -1.743001
     65          6           0      -13.687336   -0.059115   -0.369783
     66          6           0      -14.362540    1.100517   -0.766808
     67          6           0      -15.754804    1.130766   -0.833543
     68          8           0      -16.462330    2.226132   -1.219986
     69          6           0      -15.751277    3.403445   -1.527198
     70          6           0      -16.510225   -0.009421   -0.499020
     71          6           0      -15.821320   -1.151142   -0.099294
     72          6           0      -14.432070   -1.189128   -0.035895
     73          6           0      -17.997336   -0.003735   -0.591463
     74          6           0      -18.635460    0.290634   -1.793959
     75          6           0      -20.023262    0.273845   -1.910858
     76          6           0      -20.792580   -0.037932   -0.799039
     77          6           0      -20.184483   -0.331376    0.419886
     78          6           0      -18.793184   -0.315829    0.528103
     79          8           0      -18.124586   -0.588895    1.680991
     80          6           0      -18.880623   -0.868867    2.836347
     81          1           0       21.861788    0.229072   -1.109429
     82          1           0       20.765297   -1.739331   -0.117625
     83          1           0       19.526726   -2.784471    1.505395
     84          1           0       19.404978   -3.569752   -0.108509
     85          1           0       18.100421   -3.793612    1.101512
     86          1           0       18.025712    2.109275   -1.616480
     87          1           0       20.499304    2.177397   -1.872482
     88          1           0       16.286950   -1.657604   -1.791339
     89          1           0       13.812077   -1.701198   -1.688910
     90          1           0       13.867684    1.853637    0.719215
     91          1           0       15.337224    2.659506    2.262713
     92          1           0       15.227189    3.684357    0.788742
     93          1           0       16.700193    3.734158    1.810923
     94          1           0       12.093490   -2.041236    0.002847
     95          1           0        9.360652   -4.269780    0.559619
     96          1           0       10.709701   -3.778335   -0.515372
     97          1           0       10.790114   -3.433575    1.248124
     98          1           0        9.490033    2.123777   -0.593622
     99          1           0       11.960649    2.182123   -0.760838
    100          1           0        7.685592   -1.463803   -1.728339
    101          1           0        5.207781   -1.474161   -1.717681
    102          1           0        5.228956    1.427850    1.447020
    103          1           0        8.044877    2.919829    3.054918
    104          1           0        6.609409    3.153237    2.005692
    105          1           0        6.652000    1.797895    3.187394
    106          1           0        3.421644    2.122998   -0.009006
    107          1           0        2.033901    3.755750   -0.748609
    108          1           0        0.636074    4.346270    0.207388
    109          1           0        2.049597    3.628177    1.045587
    110          1           0        0.907435   -2.136062   -0.152904
    111          1           0        3.385052   -2.166733   -0.197144
    112          1           0       -0.909132    1.259613   -1.771532
    113          1           0       -3.386218    1.238316   -1.836280
    114          1           0       -3.434448   -1.326874    1.607063
    115          1           0       -2.071346   -1.455152    3.447611
    116          1           0       -2.047217   -2.927213    2.414233
    117          1           0       -0.655504   -2.555350    3.482661
    118          1           0       -5.247699    0.230618    1.980213
    119          1           0       -8.075558    0.421993    4.151986
    120          1           0       -6.653997   -0.535603    3.624400
    121          1           0       -6.660944    1.252203    3.426394
    122          1           0       -7.680197   -0.421288   -2.278814
    123          1           0       -5.202533   -0.384235   -2.269398
    124          1           0       -9.556157    1.798756    0.726835
    125          1           0      -12.031428    1.856645    0.648454
    126          1           0      -12.042992   -1.998754   -1.242233
    127          1           0       -9.247918   -4.074126   -2.036363
    128          1           0      -10.629357   -3.097612   -2.631734
    129          1           0      -10.683576   -3.829063   -0.989428
    130          1           0      -13.776563    1.977028   -1.047176
    131          1           0      -15.074457    3.262473   -2.388818
    132          1           0      -16.507319    4.156705   -1.785659
    133          1           0      -15.164185    3.763825   -0.663802
    134          1           0      -16.399544   -2.035909    0.177687
    135          1           0      -13.925794   -2.097197    0.301114
    136          1           0      -18.018102    0.540035   -2.660401
    137          1           0      -20.496829    0.504245   -2.868351
    138          1           0      -21.883872   -0.055888   -0.869125
    139          1           0      -20.806234   -0.570682    1.283857
    140          1           0      -18.154091   -1.038517    3.642127
    141          1           0      -19.499547   -1.775834    2.713430
    142          1           0      -19.533866   -0.022199    3.113268
 ---------------------------------------------------------------------

 Alpha  occ. eigenvalues --   -0.49418  -0.49351  -0.49276  -0.48862  -0.48719
 Alpha  occ. eigenvalues --   -0.48323  -0.48109  -0.47975  -0.47841  -0.47390
 Alpha  occ. eigenvalues --   -0.47051  -0.46454  -0.46390  -0.46332  -0.46179
 Alpha  occ. eigenvalues --   -0.46081  -0.45908  -0.45879  -0.45713  -0.45470
 Alpha  occ. eigenvalues --   -0.45083  -0.45000  -0.44528  -0.44462  -0.44274
 Alpha  occ. eigenvalues --   -0.44139  -0.43758  -0.43641  -0.43385  -0.43216
 Alpha  occ. eigenvalues --   -0.43077  -0.42933  -0.42866  -0.42756  -0.42505
 Alpha  occ. eigenvalues --   -0.42338  -0.42287  -0.41804  -0.41747  -0.41535
 Alpha  occ. eigenvalues --   -0.41464  -0.41288  -0.41225  -0.40779  -0.40438
 Alpha  occ. eigenvalues --   -0.40267  -0.37275  -0.36830  -0.36152  -0.35303
 Alpha  occ. eigenvalues --   -0.34373  -0.33873  -0.33189  -0.32833  -0.32637
 Alpha  occ. eigenvalues --   -0.32620  -0.31420  -0.31398  -0.31333  -0.31226
 Alpha  occ. eigenvalues --   -0.31111  -0.30521  -0.29974  -0.29182  -0.28425
 Alpha  occ. eigenvalues --   -0.27861
 Alpha virt. eigenvalues --    0.03145   0.03846   0.04891   0.06143   0.07792
 Alpha virt. eigenvalues --    0.08294   0.08964   0.09026   0.09048   0.09120
 Alpha virt. eigenvalues --    0.09144   0.09256   0.09293   0.09340   0.09529

  Beta  occ. eigenvalues --  -18.98003 -18.97980 -18.97978 -18.97971 -18.97949
  Beta  occ. eigenvalues --  -18.97906 -18.97903 -18.97900 -18.97891 -18.97880
  Beta  occ. eigenvalues --  -10.14659 -10.14650 -10.14646 -10.14641 -10.14614
  Beta  occ. eigenvalues --  -10.14611 -10.14606 -10.14602 -10.14594 -10.14587
  Beta  occ. eigenvalues --  -10.14231 -10.14189 -10.14185 -10.14182 -10.14178
  Beta  occ. eigenvalues --  -10.14117 -10.14062 -10.14051 -10.14026 -10.14024
  Beta  occ. eigenvalues --  -10.09758 -10.09756 -10.09751 -10.09746 -10.09746
  Beta  occ. eigenvalues --  -10.09744 -10.09739 -10.09734 -10.09142 -10.09128
  Beta  occ. eigenvalues --  -10.09109 -10.09108 -10.09099 -10.09096 -10.09094
  Beta  occ. eigenvalues --  -10.09084 -10.09077 -10.09066 -10.08918 -10.08899
  Beta  occ. eigenvalues --  -10.08598 -10.08590 -10.08579 -10.08573 -10.08559
  Beta  occ. eigenvalues --  -10.08557 -10.08554 -10.08553 -10.08547 -10.08536
  Beta  occ. eigenvalues --  -10.08478 -10.08456 -10.08388 -10.08384 -10.08376
  Beta  occ. eigenvalues --  -10.08374 -10.08305 -10.08301 -10.08294 -10.08293
  Beta  occ. eigenvalues --  -10.07879 -10.07863 -10.07835 -10.07830 -10.07820
  Beta  occ. eigenvalues --  -10.07817 -10.07769 -10.07768 -10.07766 -10.07761
  Beta  occ. eigenvalues --   -1.17517  -1.17506  -1.17481  -1.17470  -1.17438
  Beta  occ. eigenvalues --   -1.17391  -1.17348  -1.17333  -1.17330  -1.17306
  Beta  occ. eigenvalues --   -0.99296  -0.99156  -0.98934  -0.98631  -0.98024
  Beta  occ. eigenvalues --   -0.97743  -0.97200  -0.96620  -0.96066  -0.95673
  Beta  occ. eigenvalues --   -0.92410  -0.91666  -0.90691  -0.89589  -0.88379
  Beta  occ. eigenvalues --   -0.87605  -0.87110  -0.87094  -0.87077  -0.86927
  Beta  occ. eigenvalues --   -0.86583  -0.86512  -0.86313  -0.86296  -0.86104
  Beta  occ. eigenvalues --   -0.86079  -0.85379  -0.84563  -0.83950  -0.83401
  Beta  occ. eigenvalues --   -0.81898  -0.81870  -0.81363  -0.81330  -0.81189
  Beta  occ. eigenvalues --   -0.81167  -0.80902  -0.80663  -0.80066  -0.79115
  Beta  occ. eigenvalues --   -0.76310  -0.75072  -0.73662  -0.72354  -0.72138
  Beta  occ. eigenvalues --   -0.72014  -0.71720  -0.71492  -0.71115  -0.71055
  Beta  occ. eigenvalues --   -0.70348  -0.70284  -0.69779  -0.69691  -0.69060
  Beta  occ. eigenvalues --   -0.68999  -0.68721  -0.68565  -0.68232  -0.68026
  Beta  occ. eigenvalues --   -0.65663  -0.65506  -0.65288  -0.64981  -0.64308
  Beta  occ. eigenvalues --   -0.64140  -0.62595  -0.62062  -0.61637  -0.60960
  Beta  occ. eigenvalues --   -0.60857  -0.60590  -0.60218  -0.59944  -0.59632
  Beta  occ. eigenvalues --   -0.59605  -0.59318  -0.59215  -0.59081  -0.58859
  Beta  occ. eigenvalues --   -0.58599  -0.58487  -0.58412  -0.58342  -0.58190
  Beta  occ. eigenvalues --   -0.57908  -0.57902  -0.57854  -0.57841  -0.57815
  Beta  occ. eigenvalues --   -0.57775  -0.57684  -0.57671  -0.57615  -0.57518
  Beta  occ. eigenvalues --   -0.57207  -0.56845  -0.56397  -0.55741  -0.54915
  Beta  occ. eigenvalues --   -0.54884  -0.54501  -0.54208  -0.54132  -0.54104
  Beta  occ. eigenvalues --   -0.54072  -0.54031  -0.53832  -0.53336  -0.53207
  Beta  occ. eigenvalues --   -0.52336  -0.52222  -0.52017  -0.51907  -0.51786
  Beta  occ. eigenvalues --   -0.51740  -0.51226  -0.51155  -0.50862  -0.50828
  Beta  occ. eigenvalues --   -0.50635  -0.50475  -0.50246  -0.50042  -0.49510
  Beta  occ. eigenvalues --   -0.49418  -0.49351  -0.49276  -0.48862  -0.48719
  Beta  occ. eigenvalues --   -0.48323  -0.48109  -0.47975  -0.47841  -0.47390
  Beta  occ. eigenvalues --   -0.47051  -0.46454  -0.46390  -0.46332  -0.46179
  Beta  occ. eigenvalues --   -0.46081  -0.45908  -0.45879  -0.45713  -0.45470
  Beta  occ. eigenvalues --   -0.45083  -0.45000  -0.44528  -0.44462  -0.44274
  Beta  occ. eigenvalues --   -0.44139  -0.43758  -0.43641  -0.43385  -0.43216
  Beta  occ. eigenvalues --   -0.43077  -0.42933  -0.42866  -0.42756  -0.42505
  Beta  occ. eigenvalues --   -0.42338  -0.42287  -0.41804  -0.41747  -0.41535
  Beta  occ. eigenvalues --   -0.41464  -0.41288  -0.41225  -0.40779  -0.40438
  Beta  occ. eigenvalues --   -0.40267  -0.37275  -0.36830  -0.36152  -0.35303
  Beta  occ. eigenvalues --   -0.34373  -0.33873  -0.33189  -0.32833  -0.32637
  Beta  occ. eigenvalues --   -0.32620  -0.31420  -0.31398  -0.31333  -0.31226
  Beta  occ. eigenvalues --   -0.31111  -0.30521  -0.29974  -0.29182  -0.28425
  Beta  occ. eigenvalues --   -0.27861
  Beta virt. eigenvalues --    0.03145   0.03846   0.04891   0.06143   0.07792
  Beta virt. eigenvalues --    0.08294   0.08964   0.09026   0.09048   0.09120
  Beta virt. eigenvalues --    0.09144   0.09256   0.09293   0.09340   0.09529

 Mulliken charges and spin densities:
               1          2
     1  C    0.012079   0.000000
     2  C   -0.052893  -0.000000
     3  C    0.102298   0.000000
     4  O   -0.243011   0.000000
     5  C    0.051197   0.000000
     6  C   -0.040103  -0.000000
     7  C    0.050136   0.000000
     8  C    0.005392  -0.000000
     9  C   -0.028874   0.000000
    10  C    0.062826  -0.000000
    11  C   -0.008191   0.000000
    12  C   -0.000975   0.000000
    13  C   -0.046131  -0.000000
    14  C    0.111346  -0.000000
    15  O   -0.243582   0.000000
    16  C    0.053429   0.000000
    17  C   -0.000675  -0.000000
    18  C   -0.045584  -0.000000
    19  C    0.110451   0.000000
    20  O   -0.244099  -0.000000
    21  C    0.053432   0.000000
    22  C   -0.029509  -0.000000
    23  C    0.061104   0.000000
    24  C   -0.008012  -0.000000
    25  C   -0.029892   0.000000
    26  C    0.060996  -0.000000
    27  C   -0.004745   0.000000
    28  C   -0.001445  -0.000000
    29  C   -0.047033   0.000000
    30  C    0.109942  -0.000000
    31  O   -0.244404  -0.000000
    32  C    0.054426  -0.000000
    33  C   -0.002946   0.000000
    34  C   -0.047151  -0.000000
    35  C    0.112261  -0.000000
    36  O   -0.243946   0.000000
    37  C    0.054068  -0.000000
    38  C   -0.033050  -0.000000
    39  C    0.062335   0.000000
    40  C   -0.004863  -0.000000
    41  C   -0.033197   0.000000
    42  C    0.062186   0.000000
    43  C   -0.004961  -0.000000
    44  C   -0.002812   0.000000
    45  C   -0.046895  -0.000000
    46  C    0.112186   0.000000
    47  O   -0.244011  -0.000000
    48  C    0.054034  -0.000000
    49  C   -0.002838   0.000000
    50  C   -0.046887  -0.000000
    51  C    0.112292   0.000000
    52  O   -0.243958  -0.000000
    53  C    0.054080   0.000000
    54  C   -0.032925  -0.000000
    55  C    0.061876  -0.000000
    56  C   -0.004927   0.000000
    57  C   -0.032952   0.000000
    58  C    0.061899  -0.000000
    59  C   -0.007810  -0.000000
    60  C   -0.002255   0.000000
    61  C   -0.045242  -0.000000
    62  C    0.112440  -0.000000
    63  O   -0.244225   0.000000
    64  C    0.053216  -0.000000
    65  C   -0.002282  -0.000000
    66  C   -0.045654  -0.000000
    67  C    0.113218  -0.000000
    68  O   -0.243795  -0.000000
    69  C    0.053246   0.000000
    70  C   -0.031209   0.000000
    71  C    0.063351  -0.000000
    72  C   -0.007921   0.000000
    73  C   -0.040523   0.000000
    74  C    0.049714  -0.000000
    75  C    0.005247   0.000000
    76  C    0.011989  -0.000000
    77  C   -0.052884   0.000000
    78  C    0.102587  -0.000000
    79  O   -0.242530  -0.000000
    80  C    0.050986   0.000000
    81  H   -0.005832  -0.000000
    82  H   -0.003393  -0.000000
    83  H    0.046073   0.000000
    84  H    0.044402  -0.000000
    85  H    0.055797  -0.000000
    86  H   -0.015412   0.000000
    87  H   -0.010068   0.000000
    88  H   -0.017066  -0.000000
    89  H   -0.018833  -0.000000
    90  H   -0.008554  -0.000000
    91  H    0.048261  -0.000000
    92  H    0.043941  -0.000000
    93  H    0.055775  -0.000000
    94  H   -0.008356   0.000000
    95  H    0.055912  -0.000000
    96  H    0.044213  -0.000000
    97  H    0.048339  -0.000000
    98  H   -0.017666   0.000000
    99  H   -0.019178   0.000000
   100  H   -0.015949  -0.000000
   101  H   -0.016160   0.000000
   102  H   -0.010639   0.000000
   103  H    0.055162   0.000000
   104  H    0.041063  -0.000000
   105  H    0.048987  -0.000000
   106  H   -0.011329   0.000000
   107  H    0.047572  -0.000000
   108  H    0.056477   0.000000
   109  H    0.042098  -0.000000
   110  H   -0.016048   0.000000
   111  H   -0.016236  -0.000000
   112  H   -0.015823   0.000000
   113  H   -0.016279  -0.000000
   114  H   -0.010636   0.000000
   115  H    0.042258   0.000000
   116  H    0.047540   0.000000
   117  H    0.056368   0.000000
   118  H   -0.010886   0.000000
   119  H    0.056516  -0.000000
   120  H    0.042502  -0.000000
   121  H    0.047036  -0.000000
   122  H   -0.015936   0.000000
   123  H   -0.016057  -0.000000
   124  H   -0.016772  -0.000000
   125  H   -0.018459  -0.000000
   126  H   -0.008698  -0.000000
   127  H    0.056310  -0.000000
   128  H    0.047347   0.000000
   129  H    0.045401   0.000000
   130  H   -0.008653  -0.000000
   131  H    0.047167   0.000000
   132  H    0.055947   0.000000
   133  H    0.045569  -0.000000
   134  H   -0.017072  -0.000000
   135  H   -0.018516   0.000000
   136  H   -0.015486   0.000000
   137  H   -0.010198   0.000000
   138  H   -0.005925   0.000000
   139  H   -0.003416   0.000000
   140  H    0.057014   0.000000
   141  H    0.044121  -0.000000
   142  H    0.045908  -0.000000
 Sum of Mulliken charges =  -0.00000  -0.00000

 Dipole moment (field-independent basis, Debye):
    X=              0.0766    Y=             -0.1684    Z=              4.5951  Tot=              4.5988
 Quadrupole moment (field-independent basis, Debye-Ang):
   XX=           -408.9427   YY=           -403.6847   ZZ=           -435.2271
   XY=            -10.6443   XZ=              4.3593   YZ=              0.4231

 Normal termination of Gaussian 16 at Sat Jul 25 03:57:39 2020.
