 Gaussian 16, Revision A.03,
 Gaussian 16:  EM64L-G16RevA.03 25-Dec-2016

 ---------------------------------------------------------------
 #P uLC-wPBE/cc-pVDZ iop(3/107=0207500000, 3/108=0207500000) opt
 ---------------------------------------------------------------

 ---------
 H8 C10 N2
 ---------
 Symbolic Z-matrix:
 Charge =  0 Multiplicity = 1

 SCF Done:  E(ULC-wPBE) =  -494.918083876     A.U. after   15 cycles
 SCF Done:  E(ULC-wPBE) =  -494.950083900     A.U. after   14 cycles
 SCF Done:  E(ULC-wPBE) =  -494.956428568     A.U. after   14 cycles
 SCF Done:  E(ULC-wPBE) =  -494.956746992     A.U. after   13 cycles
 SCF Done:  E(ULC-wPBE) =  -494.956814132     A.U. after   11 cycles
 SCF Done:  E(ULC-wPBE) =  -494.956822832     A.U. after   10 cycles
 SCF Done:  E(ULC-wPBE) =  -494.956824018     A.U. after   10 cycles
 SCF Done:  E(ULC-wPBE) =  -494.956824594     A.U. after    9 cycles
 SCF Done:  E(ULC-wPBE) =  -494.956836455     A.U. after   13 cycles
 SCF Done:  E(ULC-wPBE) =  -494.904553242     A.U. after   15 cycles
 SCF Done:  E(ULC-wPBE) =  -494.957204944     A.U. after   14 cycles
 SCF Done:  E(ULC-wPBE) =  -494.904017876     A.U. after   16 cycles
 SCF Done:  E(ULC-wPBE) =  -494.957285336     A.U. after   15 cycles
 SCF Done:  E(ULC-wPBE) =  -494.936624787     A.U. after   16 cycles
 SCF Done:  E(ULC-wPBE) =  -494.956761950     A.U. after   14 cycles
 SCF Done:  E(ULC-wPBE) =  -494.958032774     A.U. after   10 cycles
 SCF Done:  E(ULC-wPBE) =  -494.958275773     A.U. after   13 cycles
 SCF Done:  E(ULC-wPBE) =  -494.958299535     A.U. after   12 cycles
 SCF Done:  E(ULC-wPBE) =  -494.958300962     A.U. after   10 cycles
 Optimization completed.
    -- Stationary point found.

                         Standard orientation:
 ---------------------------------------------------------------------
 Center     Atomic      Atomic             Coordinates (Angstroms)
 Number     Number       Type             X           Y           Z
 ---------------------------------------------------------------------
      1          6           0        3.494228   -0.073957    0.025755
      2          6           0        2.865690    1.107245   -0.373428
      3          6           0        1.470112    1.150494   -0.386180
      4          6           0        0.749883    0.007255    0.000958
      5          7           0        1.348247   -1.137348    0.379513
      6          6           0        2.686940   -1.158734    0.387718
      7          6           0       -0.749846    0.007228   -0.000671
      8          7           0       -1.348067   -1.137434   -0.379222
      9          6           0       -2.686837   -1.158838   -0.387792
     10          6           0       -3.494238   -0.073950   -0.026344
     11          6           0       -2.865860    1.107164    0.373172
     12          6           0       -1.470244    1.150343    0.386553
     13          1           0        4.587777   -0.159973    0.052594
     14          1           0        3.453255    1.982908   -0.679611
     15          1           0        0.942398    2.054090   -0.716508
     16          1           0        3.146577   -2.107754    0.706762
     17          1           0       -3.146274   -2.108124   -0.706347
     18          1           0       -4.587765   -0.159706   -0.054162
     19          1           0       -3.453556    1.982778    0.679227
     20          1           0       -0.942637    2.053750    0.717578
 ---------------------------------------------------------------------

 The electronic state is 1-A.
 Alpha  occ. eigenvalues --  -14.10811 -14.10809 -10.05568 -10.05560 -10.04826
 Alpha  occ. eigenvalues --  -10.04825 -10.03817 -10.03817 -10.02924 -10.02923
 Alpha  occ. eigenvalues --  -10.02766 -10.02766  -0.99029  -0.96987  -0.85289
 Alpha  occ. eigenvalues --   -0.84728  -0.83679  -0.78879  -0.70473  -0.69434
 Alpha  occ. eigenvalues --   -0.67002  -0.65269  -0.59397  -0.56112  -0.55162
 Alpha  occ. eigenvalues --   -0.53371  -0.52672  -0.50109  -0.48491  -0.48162
 Alpha  occ. eigenvalues --   -0.46320  -0.45798  -0.45650  -0.43206  -0.41358
 Alpha  occ. eigenvalues --   -0.36420  -0.35518  -0.34813  -0.31191  -0.31013
 Alpha  occ. eigenvalues --   -0.30552
 Alpha virt. eigenvalues --    0.00817   0.03309   0.03486   0.07193   0.12416
 Alpha virt. eigenvalues --    0.13135   0.15717   0.17183   0.18434   0.18772
 Alpha virt. eigenvalues --    0.19796   0.20247   0.21585   0.22508   0.28459

  Beta  occ. eigenvalues --  -14.10811 -14.10809 -10.05568 -10.05560 -10.04826
  Beta  occ. eigenvalues --  -10.04825 -10.03817 -10.03817 -10.02924 -10.02923
  Beta  occ. eigenvalues --  -10.02766 -10.02766  -0.99029  -0.96987  -0.85289
  Beta  occ. eigenvalues --   -0.84728  -0.83679  -0.78879  -0.70473  -0.69434
  Beta  occ. eigenvalues --   -0.67002  -0.65269  -0.59397  -0.56112  -0.55162
  Beta  occ. eigenvalues --   -0.53371  -0.52672  -0.50109  -0.48491  -0.48162
  Beta  occ. eigenvalues --   -0.46320  -0.45798  -0.45650  -0.43206  -0.41358
  Beta  occ. eigenvalues --   -0.36420  -0.35518  -0.34813  -0.31191  -0.31013
  Beta  occ. eigenvalues --   -0.30552
  Beta virt. eigenvalues --    0.00817   0.03309   0.03486   0.07193   0.12416
  Beta virt. eigenvalues --    0.13135   0.15717   0.17183   0.18434   0.18772
  Beta virt. eigenvalues --    0.19796   0.20247   0.21585   0.22508   0.28459

 Mulliken charges and spin densities:
               1          2
     1  C   -0.029216   0.000000
     2  C    0.068065  -0.000000
     3  C    0.001380   0.000000
     4  C    0.063015  -0.000000
     5  N   -0.166457   0.000000
     6  C    0.086163  -0.000000
     7  C    0.063059  -0.000000
     8  N   -0.166497   0.000000
     9  C    0.086147  -0.000000
    10  C   -0.029180   0.000000
    11  C    0.068073   0.000000
    12  C    0.001336  -0.000000
    13  H   -0.008615   0.000000
    14  H   -0.006158   0.000000
    15  H   -0.011567   0.000000
    16  H    0.003384  -0.000000
    17  H    0.003398  -0.000000
    18  H   -0.008623   0.000000
    19  H   -0.006155  -0.000000
    20  H   -0.011554  -0.000000
 Sum of Mulliken charges =  -0.00000  -0.00000

 Dipole moment (field-independent basis, Debye):
    X=             -0.0002    Y=              2.8155    Z=             -0.0004  Tot=              2.8155
 Quadrupole moment (field-independent basis, Debye-Ang):
   XX=            -51.5615   YY=            -66.2510   ZZ=            -71.4864
   XY=             -0.0006   XZ=             -0.6840   YZ=              0.0009

 Normal termination of Gaussian 16 at Sun Jul 26 12:53:59 2020.
