 Gaussian 16, Revision A.03,
 Gaussian 16:  EM64L-G16RevA.03 25-Dec-2016

 ---------------------------------------------------------------
 #P uLC-wPBE/cc-pVDZ iop(3/107=0212300000, 3/108=0212300000) opt
 ---------------------------------------------------------------

 -----------------
 H27 C45 S10 O5 F5
 -----------------
 Symbolic Z-matrix:
 Charge =  0 Multiplicity = 1

 SCF Done:  E(ULC-wPBE) =  -6584.63941008     A.U. after   17 cycles
 SCF Done:  E(ULC-wPBE) =  -6584.71630000     A.U. after   14 cycles
 SCF Done:  E(ULC-wPBE) =  -6584.77851349     A.U. after   14 cycles
 SCF Done:  E(ULC-wPBE) =  -6584.79276670     A.U. after   14 cycles
 SCF Done:  E(ULC-wPBE) =  -6584.79692287     A.U. after   14 cycles
 SCF Done:  E(ULC-wPBE) =  -6584.79904977     A.U. after   14 cycles
 SCF Done:  E(ULC-wPBE) =  -6584.80285219     A.U. after   16 cycles
 SCF Done:  E(ULC-wPBE) =  -6584.80537158     A.U. after   16 cycles
 SCF Done:  E(ULC-wPBE) =  -6584.80638489     A.U. after   14 cycles
 SCF Done:  E(ULC-wPBE) =  -6584.80733290     A.U. after   13 cycles
 SCF Done:  E(ULC-wPBE) =  -6584.80828149     A.U. after   12 cycles
 SCF Done:  E(ULC-wPBE) =  -6584.80826284     A.U. after   13 cycles
 SCF Done:  E(ULC-wPBE) =  -6584.80828293     A.U. after   12 cycles
 SCF Done:  E(ULC-wPBE) =  -6584.80826680     A.U. after   12 cycles
 SCF Done:  E(ULC-wPBE) =  -6584.80828343     A.U. after   12 cycles
 SCF Done:  E(ULC-wPBE) =  -6584.80828341     A.U. after   10 cycles
 SCF Done:  E(ULC-wPBE) =  -6584.80828321     A.U. after    7 cycles
 SCF Done:  E(ULC-wPBE) =  -6584.80828358     A.U. after   10 cycles
 SCF Done:  E(ULC-wPBE) =  -6584.80828358     A.U. after    6 cycles
 SCF Done:  E(ULC-wPBE) =  -6584.80828366     A.U. after    6 cycles
 Optimization completed on the basis of negligible forces.
    -- Stationary point found.

                         Standard orientation:
 ---------------------------------------------------------------------
 Center     Atomic      Atomic             Coordinates (Angstroms)
 Number     Number       Type             X           Y           Z
 ---------------------------------------------------------------------
      1          6           0       18.310876   -2.346876    0.734699
      2          6           0       18.278518   -0.991885    0.519137
      3          6           0       16.946780   -0.546724    0.314901
      4          9           0       16.647674    0.752163    0.081788
      5          6           0       15.970433   -1.523840    0.369082
      6         16           0       16.738016   -3.063226    0.687680
      7          6           0       14.537445   -1.365256    0.198865
      8          6           0       13.556864   -2.350297    0.255366
      9          8           0       13.923260   -3.639484    0.495836
     10          6           0       12.881704   -4.606498    0.542990
     11          6           0       12.237543   -1.860855    0.033509
     12          6           0       12.213042   -0.496959   -0.189645
     13         16           0       13.807384    0.189874   -0.114341
     14          6           0       11.058934    0.351579   -0.456400
     15          6           0       11.012277    1.561881   -1.118646
     16          6           0        9.690316    2.072132   -1.197201
     17          9           0        9.412463    3.217380   -1.841911
     18          6           0        8.717682    1.291539   -0.605500
     19         16           0        9.473418   -0.119380    0.098677
     20          6           0        7.285646    1.529363   -0.519360
     21          6           0        6.638102    2.721019   -0.212996
     22          8           0        7.364780    3.831755    0.069928
     23          6           0        6.633297    5.017020    0.350810
     24          6           0        5.214577    2.607651   -0.223790
     25          6           0        4.781289    1.328847   -0.521526
     26         16           0        6.122133    0.259135   -0.798699
     27          6           0        3.412266    0.837842   -0.610034
     28          6           0        2.927335   -0.232076   -1.335576
     29          6           0        1.532108   -0.384261   -1.161315
     30          9           0        0.832398   -1.360234   -1.782268
     31          6           0        0.920734    0.534998   -0.328124
     32         16           0        2.139898    1.629470    0.286106
     33          6           0       -0.482451    0.629520    0.022212
     34          6           0       -1.089643    1.550445    0.870713
     35          8           0       -0.324650    2.502843    1.472428
     36          6           0       -0.990358    3.406005    2.346056
     37          6           0       -2.493557    1.360570    1.015199
     38          6           0       -2.959967    0.292699    0.270513
     39         16           0       -1.677544   -0.471260   -0.619959
     40          6           0       -4.324123   -0.206279    0.168159
     41          6           0       -4.752481   -1.478759   -0.155147
     42          6           0       -6.163845   -1.566294   -0.146061
     43          9           0       -6.814231   -2.718483   -0.423187
     44          6           0       -6.842323   -0.405108    0.177313
     45         16           0       -5.672122    0.863914    0.463933
     46          6           0       -8.274158   -0.204034    0.275559
     47          6           0       -8.951437    0.971833    0.584151
     48          8           0       -8.236218    2.103727    0.833525
     49          6           0       -8.976911    3.278144    1.139991
     50          6           0      -10.368088    0.829101    0.612526
     51          6           0      -10.773440   -0.460147    0.319753
     52         16           0       -9.416193   -1.496422   -0.004369
     53          6           0      -12.130477   -0.984994    0.255465
     54          6           0      -12.559052   -2.285117    0.435514
     55          6           0      -13.962823   -2.390045    0.295493
     56          9           0      -14.612790   -3.566685    0.439090
     57          6           0      -14.634540   -1.214357    0.016689
     58         16           0      -13.466341    0.082706   -0.098058
     59          6           0      -16.061024   -1.019117   -0.166673
     60          6           0      -16.726584    0.165279   -0.464573
     61          8           0      -16.007957    1.313941   -0.612521
     62          6           0      -16.736838    2.490946   -0.934336
     63          6           0      -18.142777    0.013029   -0.581066
     64          6           0      -18.533383   -1.287144   -0.369622
     65         16           0      -17.206859   -2.330821   -0.030570
     66          1           0       19.184710   -2.976553    0.922202
     67          1           0       19.149107   -0.329825    0.503707
     68          1           0       12.155518   -4.381875    1.350912
     69          1           0       12.344843   -4.672749   -0.425519
     70          1           0       13.371006   -5.571821    0.752957
     71          1           0       11.336701   -2.481166    0.010663
     72          1           0       11.877651    2.055608   -1.571664
     73          1           0        6.007313    5.325151   -0.511979
     74          1           0        7.385472    5.798661    0.547901
     75          1           0        5.988966    4.898614    1.246688
     76          1           0        4.521902    3.433646   -0.036950
     77          1           0        3.530052   -0.871519   -1.987646
     78          1           0       -0.214078    4.089217    2.728136
     79          1           0       -1.459826    2.874001    3.198678
     80          1           0       -1.762859    3.994192    1.809551
     81          1           0       -3.142172    1.960168    1.660464
     82          1           0       -4.094084   -2.326448   -0.367967
     83          1           0       -8.232758    4.076477    1.296003
     84          1           0       -9.575407    3.150915    2.065303
     85          1           0       -9.648451    3.563505    0.304516
     86          1           0      -11.071982    1.627853    0.863708
     87          1           0      -11.909637   -3.130768    0.681541
     88          1           0      -17.465184    2.748850   -0.138142
     89          1           0      -15.991284    3.298819   -1.018752
     90          1           0      -17.271439    2.386479   -1.900776
     91          1           0      -18.842298    0.821730   -0.810387
     92          1           0      -19.548677   -1.691660   -0.397141
 ---------------------------------------------------------------------

 The electronic state is 1-A.
 Alpha  occ. eigenvalues --  -88.22594 -88.22577 -88.22527 -88.22415 -88.22410
 Alpha  occ. eigenvalues --  -88.22392 -88.22303 -88.22268 -88.22180 -88.22100
 Alpha  occ. eigenvalues --  -24.41168 -24.41159 -24.41053 -24.40764 -24.40258
 Alpha  occ. eigenvalues --  -18.93233 -18.93215 -18.93087 -18.92788 -18.92150
 Alpha  occ. eigenvalues --  -10.10000 -10.09999 -10.09900 -10.09898 -10.09482
 Alpha  occ. eigenvalues --  -10.08657 -10.08654 -10.08446 -10.08418 -10.08410
 Alpha  occ. eigenvalues --  -10.08383 -10.08343 -10.08296 -10.07994 -10.07615
 Alpha  occ. eigenvalues --  -10.06700 -10.06660 -10.06656 -10.06640 -10.06524
 Alpha  occ. eigenvalues --  -10.06503 -10.06449 -10.06385 -10.06366 -10.06356
 Alpha  occ. eigenvalues --  -10.06274 -10.05822 -10.05810 -10.05810 -10.05802
 Alpha  occ. eigenvalues --  -10.05593 -10.05533 -10.05276 -10.05207 -10.04777
 Alpha  occ. eigenvalues --  -10.03261 -10.03243 -10.03195 -10.03190 -10.03174
 Alpha  occ. eigenvalues --  -10.03131 -10.03040 -10.03039 -10.02979 -10.02755
 Alpha  occ. eigenvalues --   -7.82909  -7.82891  -7.82843  -7.82796  -7.82763
 Alpha  occ. eigenvalues --   -7.82745  -7.82682  -7.82621  -7.82533  -7.82417
 Alpha  occ. eigenvalues --   -5.84945  -5.84927  -5.84878  -5.84813  -5.84791
 Alpha  occ. eigenvalues --   -5.84773  -5.84694  -5.84635  -5.84560  -5.84464
 Alpha  occ. eigenvalues --   -5.84446  -5.84440  -5.84397  -5.84351  -5.84309
 Alpha  occ. eigenvalues --   -5.84291  -5.84231  -5.84148  -5.84078  -5.83979
 Alpha  occ. eigenvalues --   -5.83964  -5.83951  -5.83916  -5.83875  -5.83841
 Alpha  occ. eigenvalues --   -5.83823  -5.83771  -5.83733  -5.83614  -5.83523
 Alpha  occ. eigenvalues --   -1.24658  -1.24653  -1.24549  -1.24214  -1.24014
 Alpha  occ. eigenvalues --   -1.11568  -1.11555  -1.11403  -1.11145  -1.10737
 Alpha  occ. eigenvalues --   -0.95751  -0.95531  -0.95280  -0.94944  -0.94252
 Alpha  occ. eigenvalues --   -0.93958  -0.93410  -0.92897  -0.92456  -0.92148
 Alpha  occ. eigenvalues --   -0.85441  -0.84720  -0.83882  -0.82823  -0.82057
 Alpha  occ. eigenvalues --   -0.81226  -0.81006  -0.80841  -0.80750  -0.80576
 Alpha  occ. eigenvalues --   -0.79786  -0.79687  -0.79548  -0.79360  -0.78776
 Alpha  occ. eigenvalues --   -0.78478  -0.77758  -0.77383  -0.77207  -0.76820
 Alpha  occ. eigenvalues --   -0.75350  -0.74773  -0.74060  -0.73009  -0.72143
 Alpha  occ. eigenvalues --   -0.69026  -0.68465  -0.67704  -0.66759  -0.66200
 Alpha  occ. eigenvalues --   -0.65479  -0.65034  -0.64541  -0.63817  -0.63304
 Alpha  occ. eigenvalues --   -0.63072  -0.62377  -0.62183  -0.62157  -0.61823
 Alpha  occ. eigenvalues --   -0.61622  -0.61397  -0.60669  -0.60464  -0.60230
 Alpha  occ. eigenvalues --   -0.60130  -0.59935  -0.59188  -0.58683  -0.58091
 Alpha  occ. eigenvalues --   -0.56223  -0.55952  -0.55530  -0.54852  -0.54358
 Alpha  occ. eigenvalues --   -0.54194  -0.54133  -0.54051  -0.53756  -0.53445
 Alpha  occ. eigenvalues --   -0.53292  -0.53061  -0.53042  -0.52653  -0.52562
 Alpha  occ. eigenvalues --   -0.52462  -0.52426  -0.52351  -0.51954  -0.51732
 Alpha  occ. eigenvalues --   -0.51327  -0.51242  -0.51137  -0.51065  -0.50693
 Alpha  occ. eigenvalues --   -0.50662  -0.50569  -0.50379  -0.50145  -0.50034
 Alpha  occ. eigenvalues --   -0.49584  -0.49481  -0.48463  -0.47989  -0.47713
 Alpha  occ. eigenvalues --   -0.47553  -0.47484  -0.47394  -0.47243  -0.47071
 Alpha  occ. eigenvalues --   -0.47031  -0.46720  -0.46304  -0.45442  -0.45105
 Alpha  occ. eigenvalues --   -0.45087  -0.44814  -0.44469  -0.44117  -0.44066
 Alpha  occ. eigenvalues --   -0.43925  -0.43688  -0.43554  -0.43520  -0.43283
 Alpha  occ. eigenvalues --   -0.43129  -0.42755  -0.42661  -0.42474  -0.42424
 Alpha  occ. eigenvalues --   -0.41710  -0.40808  -0.40664  -0.40443  -0.40331
 Alpha  occ. eigenvalues --   -0.40222  -0.40067  -0.39956  -0.39831  -0.39805
 Alpha  occ. eigenvalues --   -0.39758  -0.39480  -0.39210  -0.39086  -0.39012
 Alpha  occ. eigenvalues --   -0.39005  -0.37208  -0.36243  -0.35642  -0.34179
 Alpha  occ. eigenvalues --   -0.32875  -0.32011  -0.31977  -0.31928  -0.31834
 Alpha  occ. eigenvalues --   -0.31456  -0.30947  -0.30837  -0.30741  -0.30728
 Alpha  occ. eigenvalues --   -0.30316  -0.28391  -0.27141  -0.25316  -0.24040
 Alpha  occ. eigenvalues --   -0.22899
 Alpha virt. eigenvalues --   -0.02661  -0.01401  -0.00213   0.01628   0.03549
 Alpha virt. eigenvalues --    0.04321   0.05754   0.06850   0.07461   0.07709
 Alpha virt. eigenvalues --    0.08068   0.08264   0.08436   0.08635   0.08807

  Beta  occ. eigenvalues --  -88.22594 -88.22577 -88.22527 -88.22415 -88.22410
  Beta  occ. eigenvalues --  -88.22392 -88.22303 -88.22268 -88.22180 -88.22100
  Beta  occ. eigenvalues --  -24.41168 -24.41159 -24.41053 -24.40764 -24.40258
  Beta  occ. eigenvalues --  -18.93233 -18.93215 -18.93087 -18.92788 -18.92150
  Beta  occ. eigenvalues --  -10.10000 -10.09999 -10.09900 -10.09898 -10.09482
  Beta  occ. eigenvalues --  -10.08657 -10.08654 -10.08446 -10.08418 -10.08410
  Beta  occ. eigenvalues --  -10.08383 -10.08343 -10.08296 -10.07994 -10.07615
  Beta  occ. eigenvalues --  -10.06700 -10.06660 -10.06656 -10.06640 -10.06524
  Beta  occ. eigenvalues --  -10.06503 -10.06449 -10.06385 -10.06366 -10.06356
  Beta  occ. eigenvalues --  -10.06274 -10.05822 -10.05810 -10.05810 -10.05802
  Beta  occ. eigenvalues --  -10.05593 -10.05533 -10.05276 -10.05207 -10.04777
  Beta  occ. eigenvalues --  -10.03261 -10.03243 -10.03195 -10.03190 -10.03174
  Beta  occ. eigenvalues --  -10.03131 -10.03040 -10.03039 -10.02979 -10.02755
  Beta  occ. eigenvalues --   -7.82909  -7.82891  -7.82843  -7.82796  -7.82763
  Beta  occ. eigenvalues --   -7.82745  -7.82682  -7.82621  -7.82533  -7.82417
  Beta  occ. eigenvalues --   -5.84945  -5.84927  -5.84878  -5.84813  -5.84791
  Beta  occ. eigenvalues --   -5.84773  -5.84694  -5.84635  -5.84560  -5.84464
  Beta  occ. eigenvalues --   -5.84446  -5.84440  -5.84397  -5.84351  -5.84309
  Beta  occ. eigenvalues --   -5.84291  -5.84231  -5.84148  -5.84078  -5.83979
  Beta  occ. eigenvalues --   -5.83964  -5.83951  -5.83916  -5.83875  -5.83841
  Beta  occ. eigenvalues --   -5.83823  -5.83771  -5.83733  -5.83614  -5.83523
  Beta  occ. eigenvalues --   -1.24658  -1.24653  -1.24549  -1.24214  -1.24014
  Beta  occ. eigenvalues --   -1.11568  -1.11555  -1.11403  -1.11145  -1.10737
  Beta  occ. eigenvalues --   -0.95751  -0.95531  -0.95280  -0.94944  -0.94252
  Beta  occ. eigenvalues --   -0.93958  -0.93410  -0.92897  -0.92456  -0.92148
  Beta  occ. eigenvalues --   -0.85441  -0.84720  -0.83882  -0.82823  -0.82057
  Beta  occ. eigenvalues --   -0.81226  -0.81006  -0.80841  -0.80750  -0.80576
  Beta  occ. eigenvalues --   -0.79786  -0.79687  -0.79548  -0.79360  -0.78776
  Beta  occ. eigenvalues --   -0.78478  -0.77758  -0.77383  -0.77207  -0.76820
  Beta  occ. eigenvalues --   -0.75350  -0.74773  -0.74060  -0.73009  -0.72143
  Beta  occ. eigenvalues --   -0.69026  -0.68465  -0.67704  -0.66759  -0.66200
  Beta  occ. eigenvalues --   -0.65479  -0.65034  -0.64541  -0.63817  -0.63304
  Beta  occ. eigenvalues --   -0.63072  -0.62377  -0.62183  -0.62157  -0.61823
  Beta  occ. eigenvalues --   -0.61622  -0.61397  -0.60669  -0.60464  -0.60230
  Beta  occ. eigenvalues --   -0.60130  -0.59935  -0.59188  -0.58683  -0.58091
  Beta  occ. eigenvalues --   -0.56223  -0.55952  -0.55530  -0.54852  -0.54358
  Beta  occ. eigenvalues --   -0.54194  -0.54133  -0.54051  -0.53756  -0.53445
  Beta  occ. eigenvalues --   -0.53292  -0.53061  -0.53042  -0.52653  -0.52562
  Beta  occ. eigenvalues --   -0.52462  -0.52426  -0.52351  -0.51954  -0.51732
  Beta  occ. eigenvalues --   -0.51327  -0.51242  -0.51137  -0.51065  -0.50693
  Beta  occ. eigenvalues --   -0.50662  -0.50569  -0.50379  -0.50145  -0.50034
  Beta  occ. eigenvalues --   -0.49584  -0.49481  -0.48463  -0.47989  -0.47713
  Beta  occ. eigenvalues --   -0.47553  -0.47484  -0.47394  -0.47243  -0.47071
  Beta  occ. eigenvalues --   -0.47031  -0.46720  -0.46304  -0.45442  -0.45105
  Beta  occ. eigenvalues --   -0.45087  -0.44814  -0.44469  -0.44117  -0.44066
  Beta  occ. eigenvalues --   -0.43925  -0.43688  -0.43554  -0.43520  -0.43283
  Beta  occ. eigenvalues --   -0.43129  -0.42755  -0.42661  -0.42474  -0.42424
  Beta  occ. eigenvalues --   -0.41710  -0.40808  -0.40664  -0.40443  -0.40331
  Beta  occ. eigenvalues --   -0.40222  -0.40067  -0.39956  -0.39831  -0.39805
  Beta  occ. eigenvalues --   -0.39758  -0.39480  -0.39210  -0.39086  -0.39012
  Beta  occ. eigenvalues --   -0.39005  -0.37208  -0.36243  -0.35642  -0.34179
  Beta  occ. eigenvalues --   -0.32875  -0.32011  -0.31977  -0.31928  -0.31834
  Beta  occ. eigenvalues --   -0.31456  -0.30947  -0.30837  -0.30741  -0.30728
  Beta  occ. eigenvalues --   -0.30316  -0.28391  -0.27141  -0.25316  -0.24040
  Beta  occ. eigenvalues --   -0.22899
  Beta virt. eigenvalues --   -0.02661  -0.01401  -0.00213   0.01628   0.03549
  Beta virt. eigenvalues --    0.04321   0.05754   0.06850   0.07461   0.07709
  Beta virt. eigenvalues --    0.08068   0.08264   0.08436   0.08635   0.08807

 Mulliken charges and spin densities:
               1          2
     1  C   -0.130121  -0.000000
     2  C    0.069621   0.000000
     3  C    0.090616   0.000000
     4  F   -0.127218   0.000000
     5  C   -0.132973  -0.000000
     6  S    0.175877   0.000000
     7  C   -0.131754  -0.000000
     8  C    0.146336   0.000000
     9  O   -0.251699   0.000000
    10  C    0.061637   0.000000
    11  C    0.014502  -0.000000
    12  C   -0.116760  -0.000000
    13  S    0.174825  -0.000000
    14  C   -0.113278   0.000000
    15  C    0.031352  -0.000000
    16  C    0.137698   0.000000
    17  F   -0.110776  -0.000000
    18  C   -0.157622  -0.000000
    19  S    0.171319  -0.000000
    20  C   -0.170148  -0.000000
    21  C    0.167252   0.000000
    22  O   -0.228458   0.000000
    23  C    0.057832  -0.000000
    24  C   -0.000738  -0.000000
    25  C   -0.109032   0.000000
    26  S    0.172976  -0.000000
    27  C   -0.123460  -0.000000
    28  C    0.049599   0.000000
    29  C    0.106778  -0.000000
    30  F   -0.123480  -0.000000
    31  C   -0.117690  -0.000000
    32  S    0.175234   0.000000
    33  C   -0.144365   0.000000
    34  C    0.144632  -0.000000
    35  O   -0.251984   0.000000
    36  C    0.062686  -0.000000
    37  C    0.014844   0.000000
    38  C   -0.114273  -0.000000
    39  S    0.176241   0.000000
    40  C   -0.122597  -0.000000
    41  C    0.049274  -0.000000
    42  C    0.107522   0.000000
    43  F   -0.123153  -0.000000
    44  C   -0.117511  -0.000000
    45  S    0.172832   0.000000
    46  C   -0.144637   0.000000
    47  C    0.144237  -0.000000
    48  O   -0.252176   0.000000
    49  C    0.062833   0.000000
    50  C    0.015032   0.000000
    51  C   -0.113125  -0.000000
    52  S    0.176372  -0.000000
    53  C   -0.124102  -0.000000
    54  C    0.047417  -0.000000
    55  C    0.109191  -0.000000
    56  F   -0.124243  -0.000000
    57  C   -0.106181  -0.000000
    58  S    0.172481  -0.000000
    59  C   -0.162126   0.000000
    60  C    0.130657  -0.000000
    61  O   -0.251026  -0.000000
    62  C    0.061890  -0.000000
    63  C    0.032967   0.000000
    64  C   -0.125574  -0.000000
    65  S    0.175832   0.000000
    66  H    0.025879  -0.000000
    67  H   -0.001398  -0.000000
    68  H    0.047655  -0.000000
    69  H    0.048106  -0.000000
    70  H    0.054605  -0.000000
    71  H   -0.006222   0.000000
    72  H    0.002490   0.000000
    73  H    0.046157   0.000000
    74  H    0.053860  -0.000000
    75  H    0.042829   0.000000
    76  H   -0.004528   0.000000
    77  H    0.000290  -0.000000
    78  H    0.053877  -0.000000
    79  H    0.049059   0.000000
    80  H    0.046785  -0.000000
    81  H   -0.006602   0.000000
    82  H    0.001915  -0.000000
    83  H    0.053189  -0.000000
    84  H    0.048186  -0.000000
    85  H    0.047614   0.000000
    86  H   -0.006860  -0.000000
    87  H    0.001352   0.000000
    88  H    0.046031   0.000000
    89  H    0.053044   0.000000
    90  H    0.047109   0.000000
    91  H   -0.007571   0.000000
    92  H    0.025035   0.000000
 Sum of Mulliken charges =  -0.00000  -0.00000

 Dipole moment (field-independent basis, Debye):
    X=             -5.1493    Y=              5.2005    Z=              2.5269  Tot=              7.7425
 Quadrupole moment (field-independent basis, Debye-Ang):
   XX=           -348.2570   YY=           -384.7377   ZZ=           -440.6926
   XY=            -88.5112   XZ=              8.6365   YZ=              9.0721

 Normal termination of Gaussian 16 at Sat Jul 25 03:42:55 2020.
