 Gaussian 16, Revision A.03,
 Gaussian 16:  EM64L-G16RevA.03 25-Dec-2016

 ---------------------------------------------------------------
 #P uLC-wPBE/cc-pVDZ iop(3/107=0319800000, 3/108=0319800000) opt
 ---------------------------------------------------------------

 -----------
 H22 C40 S10
 -----------
 Symbolic Z-matrix:
 Charge =  0 Multiplicity = 1

 SCF Done:  E(ULC-wPBE) =  -5516.90919658     A.U. after   16 cycles
 SCF Done:  E(ULC-wPBE) =  -5516.97296600     A.U. after   14 cycles
 SCF Done:  E(ULC-wPBE) =  -5517.01917256     A.U. after   14 cycles
 SCF Done:  E(ULC-wPBE) =  -5517.02175908     A.U. after   12 cycles
 SCF Done:  E(ULC-wPBE) =  -5517.02209556     A.U. after   12 cycles
 SCF Done:  E(ULC-wPBE) =  -5517.02221640     A.U. after   12 cycles
 SCF Done:  E(ULC-wPBE) =  -5517.02233664     A.U. after   12 cycles
 SCF Done:  E(ULC-wPBE) =  -5517.02270466     A.U. after   13 cycles
 SCF Done:  E(ULC-wPBE) =  -5517.02296531     A.U. after   13 cycles
 SCF Done:  E(ULC-wPBE) =  -5517.02337184     A.U. after   12 cycles
 SCF Done:  E(ULC-wPBE) =  -5517.02495943     A.U. after   12 cycles
 SCF Done:  E(ULC-wPBE) =  -5517.02495923     A.U. after   12 cycles
 SCF Done:  E(ULC-wPBE) =  -5517.02498088     A.U. after   12 cycles
 SCF Done:  E(ULC-wPBE) =  -5517.02498183     A.U. after    9 cycles
 SCF Done:  E(ULC-wPBE) =  -5517.02498307     A.U. after   11 cycles
 SCF Done:  E(ULC-wPBE) =  -5517.02498437     A.U. after   11 cycles
 SCF Done:  E(ULC-wPBE) =  -5517.02498479     A.U. after   11 cycles
 SCF Done:  E(ULC-wPBE) =  -5517.02498517     A.U. after   11 cycles
 SCF Done:  E(ULC-wPBE) =  -5517.02498515     A.U. after    7 cycles
 SCF Done:  E(ULC-wPBE) =  -5517.02498510     A.U. after    6 cycles
 Optimization completed.
    -- Stationary point found.

                         Standard orientation:
 ---------------------------------------------------------------------
 Center     Atomic      Atomic             Coordinates (Angstroms)
 Number     Number       Type             X           Y           Z
 ---------------------------------------------------------------------
      1          6           0       18.215580    1.797844   -0.533987
      2          6           0       17.966585    0.826060   -1.461407
      3          6           0       16.595797    0.439168   -1.490473
      4          6           0       15.826979    1.123832   -0.581699
      5         16           0       16.793697    2.240905    0.323116
      6          6           0       14.391858    1.005414   -0.327127
      7          6           0       13.519732    1.959403    0.135449
      8          6           0       12.187859    1.481167    0.265179
      9          6           0       12.050005    0.165719   -0.103731
     10         16           0       13.570253   -0.493040   -0.610187
     11          6           0       10.844800   -0.659848   -0.109080
     12          6           0       10.735827   -2.022824    0.021304
     13          6           0        9.391083   -2.480124   -0.010344
     14          6           0        8.481235   -1.464193   -0.170367
     15         16           0        9.284203    0.065521   -0.304078
     16          6           0        7.026334   -1.575680   -0.254486
     17          6           0        6.294964   -2.603972   -0.796166
     18          6           0        4.892345   -2.398124   -0.703631
     19          6           0        4.560772   -1.211210   -0.097049
     20         16           0        5.983135   -0.353163    0.393290
     21          6           0        3.234819   -0.652929    0.155465
     22          6           0        2.867375    0.664315    0.281005
     23          6           0        1.478879    0.834031    0.529005
     24          6           0        0.792879   -0.354284    0.587182
     25         16           0        1.862595   -1.694433    0.339402
     26          6           0       -0.632124   -0.575889    0.818175
     27          6           0       -1.254706   -1.674074    1.359052
     28          6           0       -2.665032   -1.527969    1.446638
     29          6           0       -3.111531   -0.318830    0.972311
     30         16           0       -1.791234    0.636781    0.385329
     31          6           0       -4.478509    0.191549    0.914155
     32          6           0       -4.910493    1.495179    0.928697
     33          6           0       -6.325043    1.613736    0.873575
     34          6           0       -6.965327    0.399987    0.817258
     35         16           0       -5.819637   -0.899354    0.801878
     36          6           0       -8.398482    0.124305    0.766073
     37          6           0       -9.075011   -0.990967    1.195730
     38          6           0      -10.479093   -0.900903    0.998880
     39          6           0      -10.866881    0.282373    0.419740
     40         16           0       -9.492426    1.282900    0.086263
     41          6           0      -12.213325    0.736490    0.080942
     42          6           0      -12.683871    2.022219   -0.026979
     43          6           0      -14.057984    2.084602   -0.384062
     44          6           0      -14.630878    0.846639   -0.536699
     45         16           0      -13.470100   -0.407947   -0.251990
     46          6           0      -16.022948    0.541854   -0.869350
     47          6           0      -17.143598    1.238986   -0.490807
     48          6           0      -18.346602    0.680297   -1.010715
     49          6           0      -18.120621   -0.434280   -1.768089
     50         16           0      -16.446684   -0.806209   -1.872386
     51          1           0       19.165464    2.281102   -0.302495
     52          1           0       18.735125    0.403111   -2.111671
     53          1           0       16.183592   -0.306787   -2.174139
     54          1           0       13.826710    2.981905    0.366773
     55          1           0       11.354766    2.086453    0.629936
     56          1           0       11.599245   -2.675838    0.168215
     57          1           0        9.095938   -3.523866    0.114997
     58          1           0        6.756776   -3.468136   -1.277963
     59          1           0        4.146525   -3.089997   -1.101888
     60          1           0        3.575974    1.490394    0.187080
     61          1           0        0.998778    1.804898    0.671236
     62          1           0       -0.709635   -2.552817    1.711336
     63          1           0       -3.330978   -2.281091    1.873998
     64          1           0       -4.229546    2.345863    1.005986
     65          1           0       -6.859081    2.566211    0.903355
     66          1           0       -8.578563   -1.842108    1.667377
     67          1           0      -11.188215   -1.674972    1.301080
     68          1           0      -12.059121    2.900289    0.152610
     69          1           0      -14.609554    3.013906   -0.540128
     70          1           0      -17.102450    2.113173    0.162436
     71          1           0      -19.342315    1.085662   -0.818932
     72          1           0      -18.852131   -1.063161   -2.276819
 ---------------------------------------------------------------------

 The electronic state is 1-A.
 Alpha  occ. eigenvalues --  -88.28579 -88.28576 -88.28560 -88.28558 -88.28530
 Alpha  occ. eigenvalues --  -88.28502 -88.28388 -88.28377 -88.28149 -88.28148
 Alpha  occ. eigenvalues --  -10.12715 -10.12708 -10.12698 -10.12696 -10.12694
 Alpha  occ. eigenvalues --  -10.12691 -10.12680 -10.12654 -10.12639 -10.12628
 Alpha  occ. eigenvalues --  -10.12622 -10.12606 -10.12527 -10.12513 -10.12486
 Alpha  occ. eigenvalues --  -10.12453 -10.12254 -10.12212 -10.10949 -10.10943
 Alpha  occ. eigenvalues --  -10.09194 -10.09181 -10.09176 -10.09171 -10.09170
 Alpha  occ. eigenvalues --  -10.09154 -10.09150 -10.09133 -10.09126 -10.09116
 Alpha  occ. eigenvalues --  -10.09088 -10.09080 -10.09025 -10.09011 -10.08942
 Alpha  occ. eigenvalues --  -10.08940 -10.08755 -10.08750 -10.08734 -10.08727
 Alpha  occ. eigenvalues --   -7.89188  -7.89187  -7.89171  -7.89170  -7.89139
 Alpha  occ. eigenvalues --   -7.89113  -7.89000  -7.88990  -7.88766  -7.88765
 Alpha  occ. eigenvalues --   -5.90978  -5.90976  -5.90962  -5.90962  -5.90927
 Alpha  occ. eigenvalues --   -5.90904  -5.90788  -5.90780  -5.90542  -5.90540
 Alpha  occ. eigenvalues --   -5.90469  -5.90469  -5.90454  -5.90453  -5.90420
 Alpha  occ. eigenvalues --   -5.90395  -5.90281  -5.90272  -5.90050  -5.90043
 Alpha  occ. eigenvalues --   -5.90031  -5.90030  -5.90026  -5.90025  -5.90001
 Alpha  occ. eigenvalues --   -5.89968  -5.89861  -5.89846  -5.89658  -5.89652
 Alpha  occ. eigenvalues --   -1.02839  -1.02601  -1.02274  -1.01864  -1.01369
 Alpha  occ. eigenvalues --   -1.00800  -1.00188  -0.99578  -0.99057  -0.98809
 Alpha  occ. eigenvalues --   -0.91510  -0.90690  -0.89594  -0.88362  -0.87278
 Alpha  occ. eigenvalues --   -0.86746  -0.86549  -0.86375  -0.86006  -0.85947
 Alpha  occ. eigenvalues --   -0.85460  -0.85418  -0.85008  -0.84889  -0.84710
 Alpha  occ. eigenvalues --   -0.83913  -0.82636  -0.81264  -0.79851  -0.79060
 Alpha  occ. eigenvalues --   -0.73666  -0.73105  -0.72224  -0.71338  -0.71049
 Alpha  occ. eigenvalues --   -0.69789  -0.68934  -0.68422  -0.67342  -0.66722
 Alpha  occ. eigenvalues --   -0.66537  -0.64977  -0.64699  -0.64295  -0.64203
 Alpha  occ. eigenvalues --   -0.64001  -0.63892  -0.63802  -0.63743  -0.63719
 Alpha  occ. eigenvalues --   -0.63546  -0.63336  -0.62215  -0.61261  -0.59454
 Alpha  occ. eigenvalues --   -0.57639  -0.56700  -0.55860  -0.55296  -0.54862
 Alpha  occ. eigenvalues --   -0.53796  -0.53471  -0.53202  -0.52786  -0.52237
 Alpha  occ. eigenvalues --   -0.52135  -0.51960  -0.51671  -0.51627  -0.51454
 Alpha  occ. eigenvalues --   -0.51303  -0.51201  -0.50844  -0.50773  -0.50680
 Alpha  occ. eigenvalues --   -0.50541  -0.50358  -0.49698  -0.49614  -0.49363
 Alpha  occ. eigenvalues --   -0.48968  -0.48765  -0.48330  -0.48246  -0.48173
 Alpha  occ. eigenvalues --   -0.48155  -0.47969  -0.47645  -0.47381  -0.46811
 Alpha  occ. eigenvalues --   -0.46516  -0.45940  -0.45581  -0.45345  -0.44864
 Alpha  occ. eigenvalues --   -0.44562  -0.44207  -0.43945  -0.43804  -0.43630
 Alpha  occ. eigenvalues --   -0.43580  -0.40882  -0.39901  -0.38795  -0.36953
 Alpha  occ. eigenvalues --   -0.35891  -0.35794  -0.35718  -0.35643  -0.35533
 Alpha  occ. eigenvalues --   -0.35412  -0.35357  -0.35285  -0.35145  -0.35087
 Alpha  occ. eigenvalues --   -0.34958  -0.33262  -0.31379  -0.29542  -0.27897
 Alpha  occ. eigenvalues --   -0.26757
 Alpha virt. eigenvalues --   -0.01399  -0.00260   0.01156   0.02697   0.04248
 Alpha virt. eigenvalues --    0.05535   0.06918   0.08126   0.08849   0.08927
 Alpha virt. eigenvalues --    0.09692   0.09941   0.10279   0.10490   0.10617

  Beta  occ. eigenvalues --  -88.28579 -88.28576 -88.28560 -88.28558 -88.28530
  Beta  occ. eigenvalues --  -88.28502 -88.28388 -88.28377 -88.28149 -88.28148
  Beta  occ. eigenvalues --  -10.12715 -10.12708 -10.12698 -10.12696 -10.12694
  Beta  occ. eigenvalues --  -10.12691 -10.12680 -10.12654 -10.12639 -10.12628
  Beta  occ. eigenvalues --  -10.12622 -10.12606 -10.12527 -10.12513 -10.12486
  Beta  occ. eigenvalues --  -10.12453 -10.12254 -10.12212 -10.10949 -10.10943
  Beta  occ. eigenvalues --  -10.09194 -10.09181 -10.09176 -10.09171 -10.09170
  Beta  occ. eigenvalues --  -10.09154 -10.09150 -10.09133 -10.09126 -10.09116
  Beta  occ. eigenvalues --  -10.09088 -10.09080 -10.09025 -10.09011 -10.08942
  Beta  occ. eigenvalues --  -10.08940 -10.08755 -10.08750 -10.08734 -10.08727
  Beta  occ. eigenvalues --   -7.89188  -7.89187  -7.89171  -7.89170  -7.89139
  Beta  occ. eigenvalues --   -7.89113  -7.89000  -7.88990  -7.88766  -7.88765
  Beta  occ. eigenvalues --   -5.90978  -5.90976  -5.90962  -5.90962  -5.90927
  Beta  occ. eigenvalues --   -5.90904  -5.90788  -5.90780  -5.90542  -5.90540
  Beta  occ. eigenvalues --   -5.90469  -5.90469  -5.90454  -5.90453  -5.90420
  Beta  occ. eigenvalues --   -5.90395  -5.90281  -5.90272  -5.90050  -5.90043
  Beta  occ. eigenvalues --   -5.90031  -5.90030  -5.90026  -5.90025  -5.90001
  Beta  occ. eigenvalues --   -5.89968  -5.89861  -5.89846  -5.89658  -5.89652
  Beta  occ. eigenvalues --   -1.02839  -1.02601  -1.02274  -1.01864  -1.01369
  Beta  occ. eigenvalues --   -1.00800  -1.00188  -0.99578  -0.99057  -0.98809
  Beta  occ. eigenvalues --   -0.91510  -0.90690  -0.89594  -0.88362  -0.87278
  Beta  occ. eigenvalues --   -0.86746  -0.86549  -0.86375  -0.86006  -0.85947
  Beta  occ. eigenvalues --   -0.85460  -0.85418  -0.85008  -0.84889  -0.84710
  Beta  occ. eigenvalues --   -0.83913  -0.82636  -0.81264  -0.79851  -0.79060
  Beta  occ. eigenvalues --   -0.73666  -0.73105  -0.72224  -0.71338  -0.71049
  Beta  occ. eigenvalues --   -0.69789  -0.68934  -0.68422  -0.67342  -0.66722
  Beta  occ. eigenvalues --   -0.66537  -0.64977  -0.64699  -0.64295  -0.64203
  Beta  occ. eigenvalues --   -0.64001  -0.63892  -0.63802  -0.63743  -0.63719
  Beta  occ. eigenvalues --   -0.63546  -0.63336  -0.62215  -0.61261  -0.59454
  Beta  occ. eigenvalues --   -0.57639  -0.56700  -0.55860  -0.55296  -0.54862
  Beta  occ. eigenvalues --   -0.53796  -0.53471  -0.53202  -0.52786  -0.52237
  Beta  occ. eigenvalues --   -0.52135  -0.51960  -0.51671  -0.51627  -0.51454
  Beta  occ. eigenvalues --   -0.51303  -0.51201  -0.50844  -0.50773  -0.50680
  Beta  occ. eigenvalues --   -0.50541  -0.50358  -0.49698  -0.49614  -0.49363
  Beta  occ. eigenvalues --   -0.48968  -0.48765  -0.48330  -0.48246  -0.48173
  Beta  occ. eigenvalues --   -0.48155  -0.47969  -0.47645  -0.47381  -0.46811
  Beta  occ. eigenvalues --   -0.46516  -0.45940  -0.45581  -0.45345  -0.44864
  Beta  occ. eigenvalues --   -0.44562  -0.44207  -0.43945  -0.43804  -0.43630
  Beta  occ. eigenvalues --   -0.43580  -0.40882  -0.39901  -0.38795  -0.36953
  Beta  occ. eigenvalues --   -0.35891  -0.35794  -0.35718  -0.35643  -0.35533
  Beta  occ. eigenvalues --   -0.35412  -0.35357  -0.35285  -0.35145  -0.35087
  Beta  occ. eigenvalues --   -0.34958  -0.33262  -0.31379  -0.29542  -0.27897
  Beta  occ. eigenvalues --   -0.26757
  Beta virt. eigenvalues --   -0.01399  -0.00260   0.01156   0.02697   0.04248
  Beta virt. eigenvalues --    0.05535   0.06918   0.08126   0.08849   0.08927
  Beta virt. eigenvalues --    0.09692   0.09941   0.10279   0.10490   0.10617

 Mulliken charges and spin densities:
               1          2
     1  C   -0.136327  -0.000000
     2  C    0.055563  -0.000000
     3  C    0.002408   0.000000
     4  C   -0.129204   0.000000
     5  S    0.163040   0.000000
     6  C   -0.111435  -0.000000
     7  C    0.033679  -0.000000
     8  C    0.028990   0.000000
     9  C   -0.122552  -0.000000
    10  S    0.172380   0.000000
    11  C   -0.121792  -0.000000
    12  C    0.029016  -0.000000
    13  C    0.034673   0.000000
    14  C   -0.123107  -0.000000
    15  S    0.180633   0.000000
    16  C   -0.122366   0.000000
    17  C    0.034805   0.000000
    18  C    0.028897  -0.000000
    19  C   -0.123369  -0.000000
    20  S    0.180942   0.000000
    21  C   -0.120804   0.000000
    22  C    0.031040   0.000000
    23  C    0.030345   0.000000
    24  C   -0.120017  -0.000000
    25  S    0.172884  -0.000000
    26  C   -0.121563   0.000000
    27  C    0.029647  -0.000000
    28  C    0.030302  -0.000000
    29  C   -0.120533   0.000000
    30  S    0.175790  -0.000000
    31  C   -0.120741   0.000000
    32  C    0.030088  -0.000000
    33  C    0.029935   0.000000
    34  C   -0.120208  -0.000000
    35  S    0.175932   0.000000
    36  C   -0.120888  -0.000000
    37  C    0.030061   0.000000
    38  C    0.029881  -0.000000
    39  C   -0.120136   0.000000
    40  S    0.174765   0.000000
    41  C   -0.123492   0.000000
    42  C    0.027089  -0.000000
    43  C    0.037800   0.000000
    44  C   -0.114289   0.000000
    45  S    0.179811   0.000000
    46  C   -0.131169   0.000000
    47  C    0.008032  -0.000000
    48  C    0.054952   0.000000
    49  C   -0.138278   0.000000
    50  S    0.169073  -0.000000
    51  H    0.034631  -0.000000
    52  H    0.002255  -0.000000
    53  H    0.004229  -0.000000
    54  H    0.001730   0.000000
    55  H    0.002531   0.000000
    56  H    0.003664   0.000000
    57  H   -0.003606   0.000000
    58  H   -0.003351  -0.000000
    59  H    0.003953  -0.000000
    60  H    0.003252  -0.000000
    61  H    0.002288  -0.000000
    62  H    0.003599   0.000000
    63  H    0.002161   0.000000
    64  H    0.002065  -0.000000
    65  H    0.002036   0.000000
    66  H    0.001922   0.000000
    67  H    0.003819  -0.000000
    68  H    0.001672  -0.000000
    69  H   -0.003621  -0.000000
    70  H   -0.002667  -0.000000
    71  H    0.002934  -0.000000
    72  H    0.034320  -0.000000
 Sum of Mulliken charges =  -0.00000   0.00000

 Dipole moment (field-independent basis, Debye):
    X=             -0.2030    Y=              0.2133    Z=              0.2953  Tot=              0.4170
 Quadrupole moment (field-independent basis, Debye-Ang):
   XX=           -266.4809   YY=           -325.9437   ZZ=           -364.9585
   XY=            -10.8839   XZ=             -9.4283   YZ=              4.4334

 Normal termination of Gaussian 16 at Fri Jul 24 17:33:32 2020.
