 Gaussian 16, Revision A.03,
 Gaussian 16:  EM64L-G16RevA.03 25-Dec-2016

 ---------------------------------------------------------------
 #P uLC-wPBE/cc-pVDZ iop(3/107=0224700000, 3/108=0224700000) opt
 ---------------------------------------------------------------

 -------------
 H42 C55 S5 O5
 -------------
 Symbolic Z-matrix:
 Charge =  0 Multiplicity = 1

 SCF Done:  E(ULC-wPBE) =  -4485.33056535     A.U. after   17 cycles
 SCF Done:  E(ULC-wPBE) =  -4485.40284722     A.U. after   14 cycles
 SCF Done:  E(ULC-wPBE) =  -4485.45577799     A.U. after   15 cycles
 SCF Done:  E(ULC-wPBE) =  -4485.47167346     A.U. after   13 cycles
 SCF Done:  E(ULC-wPBE) =  -4485.47779533     A.U. after   15 cycles
 SCF Done:  E(ULC-wPBE) =  -4485.48037866     A.U. after   15 cycles
 SCF Done:  E(ULC-wPBE) =  -4485.48202640     A.U. after   15 cycles
 SCF Done:  E(ULC-wPBE) =  -4485.48266623     A.U. after   14 cycles
 SCF Done:  E(ULC-wPBE) =  -4485.48278981     A.U. after   12 cycles
 SCF Done:  E(ULC-wPBE) =  -4485.48282314     A.U. after   12 cycles
 SCF Done:  E(ULC-wPBE) =  -4485.48283625     A.U. after   11 cycles
 SCF Done:  E(ULC-wPBE) =  -4485.48284367     A.U. after   11 cycles
 SCF Done:  E(ULC-wPBE) =  -4485.48285000     A.U. after   12 cycles
 SCF Done:  E(ULC-wPBE) =  -4485.48285201     A.U. after   12 cycles
 SCF Done:  E(ULC-wPBE) =  -4485.48285236     A.U. after   10 cycles
 SCF Done:  E(ULC-wPBE) =  -4485.48285264     A.U. after    7 cycles
 SCF Done:  E(ULC-wPBE) =  -4485.48285272     A.U. after   10 cycles
 SCF Done:  E(ULC-wPBE) =  -4485.48285300     A.U. after    8 cycles
 SCF Done:  E(ULC-wPBE) =  -4485.48285312     A.U. after    7 cycles
 SCF Done:  E(ULC-wPBE) =  -4485.48285314     A.U. after    5 cycles
 Optimization completed on the basis of negligible forces.
    -- Stationary point found.

                         Standard orientation:
 ---------------------------------------------------------------------
 Center     Atomic      Atomic             Coordinates (Angstroms)
 Number     Number       Type             X           Y           Z
 ---------------------------------------------------------------------
      1          6           0       19.822995    0.631825   -0.059570
      2          6           0       19.449073   -0.678285    0.253754
      3          6           0       18.107851   -1.065196    0.215530
      4          6           0       17.104039   -0.143938   -0.145669
      5          6           0       17.495978    1.171825   -0.464944
      6          6           0       18.836666    1.555931   -0.417662
      7          6           0       15.683868   -0.534241   -0.179538
      8          6           0       15.109328   -1.789821   -0.342068
      9          8           0       15.892318   -2.897089   -0.499787
     10          6           0       15.221720   -4.119247   -0.768226
     11          6           0       13.680825   -1.772275   -0.343719
     12          6           0       13.157818   -0.506412   -0.176441
     13         16           0       14.427404    0.661990   -0.001963
     14          6           0       11.740588   -0.108943   -0.120254
     15          6           0       11.312201    1.162646   -0.540400
     16          6           0        9.968815    1.529613   -0.493272
     17          6           0        8.987809    0.632620   -0.024081
     18          6           0        9.420807   -0.640156    0.400958
     19          6           0       10.763912   -1.002927    0.355498
     20          6           0        7.564046    0.998067    0.016259
     21          6           0        6.966240    2.254221    0.030669
     22          8           0        7.727417    3.386266    0.004365
     23          6           0        7.038897    4.622696    0.124773
     24          6           0        5.539990    2.211196    0.093867
     25          6           0        5.040749    0.925175    0.122088
     26         16           0        6.329015   -0.233704    0.055496
     27          6           0        3.632315    0.498075    0.178957
     28          6           0        2.617418    1.300553   -0.373797
     29          6           0        1.282696    0.910410   -0.314634
     30          6           0        0.896187   -0.300485    0.296113
     31          6           0        1.915386   -1.106196    0.843246
     32          6           0        3.250499   -0.711337    0.785642
     33          6           0       -0.518982   -0.695276    0.360885
     34          6           0       -1.086813   -1.950257    0.557051
     35          8           0       -0.299751   -3.048737    0.744236
     36          6           0       -0.962407   -4.301489    0.841549
     37          6           0       -2.515029   -1.944512    0.538082
     38          6           0       -3.045762   -0.687242    0.335607
     39         16           0       -1.784333    0.489444    0.160144
     40          6           0       -4.465673   -0.301457    0.263703
     41          6           0       -4.905974    0.975773    0.653056
     42          6           0       -6.251864    1.330876    0.590069
     43          6           0       -7.222929    0.416088    0.134680
     44          6           0       -6.777672   -0.862367   -0.259514
     45          6           0       -5.432231   -1.213662   -0.197575
     46          6           0       -8.649080    0.769497    0.077263
     47          6           0       -9.256310    2.020477    0.032411
     48          8           0       -8.504101    3.158529    0.039957
     49          6           0       -9.201295    4.387138   -0.109001
     50          6           0      -10.681721    1.964890   -0.039527
     51          6           0      -11.170575    0.674672   -0.043811
     52         16           0       -9.874107   -0.472500    0.055678
     53          6           0      -12.575418    0.235226   -0.100972
     54          6           0      -12.941712   -0.988804   -0.688735
     55          6           0      -14.274880   -1.386230   -0.746570
     56          6           0      -15.304177   -0.581081   -0.219676
     57          6           0      -14.935611    0.645216    0.369173
     58          6           0      -13.600585    1.039608    0.428168
     59          6           0      -16.709058   -1.017292   -0.273804
     60          6           0      -17.875337   -0.261002   -0.224813
     61          8           0      -17.819425    1.096710   -0.099470
     62          6           0      -19.055060    1.794356   -0.162707
     63          6           0      -19.070491   -1.043515   -0.327160
     64          6           0      -18.800443   -2.383820   -0.445259
     65         16           0      -17.113053   -2.707464   -0.429838
     66          1           0       20.878150    0.931427   -0.026627
     67          1           0       20.212633   -1.413794    0.538841
     68          1           0       17.825481   -2.091857    0.467863
     69          1           0       16.736718    1.904970   -0.768248
     70          1           0       19.113018    2.587352   -0.671884
     71          1           0       14.562001   -4.419210    0.071866
     72          1           0       14.621929   -4.060717   -1.699321
     73          1           0       16.010423   -4.879177   -0.894528
     74          1           0       13.050291   -2.652256   -0.496913
     75          1           0       12.046786    1.876708   -0.935770
     76          1           0        9.666530    2.523847   -0.834878
     77          1           0        8.691194   -1.357180    0.799794
     78          1           0       11.066472   -1.990680    0.725145
     79          1           0        6.474915    4.684665    1.077581
     80          1           0        7.814285    5.406206    0.112721
     81          1           0        6.343124    4.788885   -0.723078
     82          1           0        4.895436    3.092352    0.151873
     83          1           0        2.881945    2.233939   -0.886296
     84          1           0        0.522403    1.553664   -0.776910
     85          1           0        1.650136   -2.049404    1.329355
     86          1           0        4.015996   -1.350753    1.245000
     87          1           0       -1.622703   -4.348044    1.731597
     88          1           0       -1.558694   -4.518949   -0.067766
     89          1           0       -0.168487   -5.059582    0.942698
     90          1           0       -3.140078   -2.826507    0.701151
     91          1           0       -4.179691    1.704438    1.037015
     92          1           0       -6.563917    2.329899    0.908019
     93          1           0       -7.499138   -1.593794   -0.646769
     94          1           0       -5.120178   -2.207219   -0.542949
     95          1           0       -9.759624    4.425929   -1.066322
     96          1           0       -9.903503    4.564434    0.731207
     97          1           0       -8.431946    5.176636   -0.107590
     98          1           0      -11.332784    2.839404   -0.120380
     99          1           0      -12.169785   -1.630872   -1.132806
    100          1           0      -14.523715   -2.338220   -1.233607
    101          1           0      -15.710563    1.288762    0.796195
    102          1           0      -13.344403    1.985198    0.922597
    103          1           0      -19.577151    1.613615   -1.124288
    104          1           0      -19.726498    1.516808    0.675605
    105          1           0      -18.805554    2.865246   -0.083510
    106          1           0      -20.085669   -0.637819   -0.314251
    107          1           0      -19.516051   -3.205269   -0.532033
 ---------------------------------------------------------------------

 The electronic state is 1-A.
 Alpha  occ. eigenvalues --  -88.22814 -88.22393 -88.22197 -88.22008 -88.21674
 Alpha  occ. eigenvalues --  -18.93333 -18.93100 -18.92937 -18.92730 -18.92350
 Alpha  occ. eigenvalues --  -10.08999 -10.08836 -10.08776 -10.08599 -10.08572
 Alpha  occ. eigenvalues --  -10.08403 -10.08391 -10.08225 -10.07989 -10.07951
 Alpha  occ. eigenvalues --  -10.06395 -10.06214 -10.06009 -10.05995 -10.05643
 Alpha  occ. eigenvalues --  -10.05413 -10.05141 -10.04960 -10.04774 -10.04754
 Alpha  occ. eigenvalues --  -10.04580 -10.04540 -10.04372 -10.04367 -10.04337
 Alpha  occ. eigenvalues --  -10.04143 -10.04130 -10.03905 -10.03776 -10.03610
 Alpha  occ. eigenvalues --  -10.03263 -10.03252 -10.03195 -10.03167 -10.03087
 Alpha  occ. eigenvalues --  -10.03055 -10.02952 -10.02905 -10.02902 -10.02869
 Alpha  occ. eigenvalues --  -10.02790 -10.02769 -10.02720 -10.02665 -10.02553
 Alpha  occ. eigenvalues --  -10.02553 -10.02493 -10.02479 -10.02294 -10.02091
 Alpha  occ. eigenvalues --  -10.01992 -10.01932 -10.01876 -10.01807 -10.01539
 Alpha  occ. eigenvalues --   -7.83226  -7.82803  -7.82608  -7.82417  -7.82080
 Alpha  occ. eigenvalues --   -5.85202  -5.84787  -5.84730  -5.84592  -5.84401
 Alpha  occ. eigenvalues --   -5.84332  -5.84319  -5.84124  -5.84063  -5.83933
 Alpha  occ. eigenvalues --   -5.83890  -5.83694  -5.83595  -5.83504  -5.83170
 Alpha  occ. eigenvalues --   -1.11743  -1.11516  -1.11348  -1.11145  -1.10771
 Alpha  occ. eigenvalues --   -0.94850  -0.94589  -0.94431  -0.94294  -0.93934
 Alpha  occ. eigenvalues --   -0.91807  -0.91366  -0.90914  -0.90462  -0.89779
 Alpha  occ. eigenvalues --   -0.85822  -0.85063  -0.84115  -0.83062  -0.81765
 Alpha  occ. eigenvalues --   -0.81512  -0.81451  -0.81127  -0.80910  -0.80554
 Alpha  occ. eigenvalues --   -0.80451  -0.80310  -0.80088  -0.79845  -0.79237
 Alpha  occ. eigenvalues --   -0.79140  -0.78583  -0.77973  -0.77502  -0.76942
 Alpha  occ. eigenvalues --   -0.75530  -0.75045  -0.74418  -0.73496  -0.72469
 Alpha  occ. eigenvalues --   -0.70087  -0.68824  -0.68122  -0.67710  -0.67447
 Alpha  occ. eigenvalues --   -0.67282  -0.66916  -0.66186  -0.66007  -0.65076
 Alpha  occ. eigenvalues --   -0.63662  -0.63012  -0.62480  -0.62216  -0.61988
 Alpha  occ. eigenvalues --   -0.61883  -0.61585  -0.61549  -0.61318  -0.60953
 Alpha  occ. eigenvalues --   -0.60801  -0.60428  -0.60085  -0.59638  -0.59185
 Alpha  occ. eigenvalues --   -0.55469  -0.55357  -0.55138  -0.54844  -0.54563
 Alpha  occ. eigenvalues --   -0.54412  -0.54219  -0.54074  -0.53985  -0.53807
 Alpha  occ. eigenvalues --   -0.53687  -0.53465  -0.53164  -0.52784  -0.52571
 Alpha  occ. eigenvalues --   -0.52322  -0.52126  -0.51908  -0.51591  -0.51429
 Alpha  occ. eigenvalues --   -0.50930  -0.50616  -0.50192  -0.50018  -0.49795
 Alpha  occ. eigenvalues --   -0.49439  -0.49299  -0.48892  -0.48769  -0.48680
 Alpha  occ. eigenvalues --   -0.48394  -0.48300  -0.48170  -0.48059  -0.47992
 Alpha  occ. eigenvalues --   -0.47603  -0.47569  -0.47449  -0.47326  -0.47041
 Alpha  occ. eigenvalues --   -0.46627  -0.46485  -0.46028  -0.45853  -0.45693
 Alpha  occ. eigenvalues --   -0.45472  -0.45037  -0.44395  -0.44187  -0.43909
 Alpha  occ. eigenvalues --   -0.43472  -0.43204  -0.43155  -0.43098  -0.42678
 Alpha  occ. eigenvalues --   -0.42565  -0.42283  -0.42052  -0.41659  -0.41299
 Alpha  occ. eigenvalues --   -0.41063  -0.40626  -0.40374  -0.40248  -0.40074
 Alpha  occ. eigenvalues --   -0.40061  -0.39827  -0.39712  -0.39509  -0.39284
 Alpha  occ. eigenvalues --   -0.39216  -0.39107  -0.39003  -0.38713  -0.38496
 Alpha  occ. eigenvalues --   -0.38178  -0.37032  -0.36276  -0.35399  -0.34163
 Alpha  occ. eigenvalues --   -0.33065  -0.32972  -0.32829  -0.32644  -0.32417
 Alpha  occ. eigenvalues --   -0.31724  -0.31539  -0.30977  -0.30703  -0.30468
 Alpha  occ. eigenvalues --   -0.30114  -0.28532  -0.27524  -0.26197  -0.24862
 Alpha  occ. eigenvalues --   -0.23838
 Alpha virt. eigenvalues --   -0.01410  -0.00311   0.01230   0.02856   0.04500
 Alpha virt. eigenvalues --    0.04883   0.05162   0.05356   0.05600   0.06097
 Alpha virt. eigenvalues --    0.06385   0.07498   0.08727   0.09414   0.09765

  Beta  occ. eigenvalues --  -88.22814 -88.22393 -88.22197 -88.22008 -88.21674
  Beta  occ. eigenvalues --  -18.93333 -18.93100 -18.92937 -18.92730 -18.92350
  Beta  occ. eigenvalues --  -10.08999 -10.08836 -10.08776 -10.08599 -10.08572
  Beta  occ. eigenvalues --  -10.08403 -10.08391 -10.08225 -10.07989 -10.07951
  Beta  occ. eigenvalues --  -10.06395 -10.06214 -10.06009 -10.05995 -10.05643
  Beta  occ. eigenvalues --  -10.05413 -10.05141 -10.04960 -10.04774 -10.04754
  Beta  occ. eigenvalues --  -10.04580 -10.04540 -10.04372 -10.04367 -10.04337
  Beta  occ. eigenvalues --  -10.04143 -10.04130 -10.03905 -10.03776 -10.03610
  Beta  occ. eigenvalues --  -10.03263 -10.03252 -10.03195 -10.03167 -10.03087
  Beta  occ. eigenvalues --  -10.03055 -10.02952 -10.02905 -10.02902 -10.02869
  Beta  occ. eigenvalues --  -10.02790 -10.02769 -10.02720 -10.02665 -10.02553
  Beta  occ. eigenvalues --  -10.02553 -10.02493 -10.02479 -10.02294 -10.02091
  Beta  occ. eigenvalues --  -10.01992 -10.01932 -10.01876 -10.01807 -10.01539
  Beta  occ. eigenvalues --   -7.83226  -7.82803  -7.82608  -7.82417  -7.82080
  Beta  occ. eigenvalues --   -5.85202  -5.84787  -5.84730  -5.84592  -5.84401
  Beta  occ. eigenvalues --   -5.84332  -5.84319  -5.84124  -5.84063  -5.83933
  Beta  occ. eigenvalues --   -5.83890  -5.83694  -5.83595  -5.83504  -5.83170
  Beta  occ. eigenvalues --   -1.11743  -1.11516  -1.11348  -1.11145  -1.10771
  Beta  occ. eigenvalues --   -0.94850  -0.94589  -0.94431  -0.94294  -0.93934
  Beta  occ. eigenvalues --   -0.91807  -0.91366  -0.90914  -0.90462  -0.89779
  Beta  occ. eigenvalues --   -0.85822  -0.85063  -0.84115  -0.83062  -0.81765
  Beta  occ. eigenvalues --   -0.81512  -0.81451  -0.81127  -0.80910  -0.80554
  Beta  occ. eigenvalues --   -0.80451  -0.80310  -0.80088  -0.79845  -0.79237
  Beta  occ. eigenvalues --   -0.79140  -0.78583  -0.77973  -0.77502  -0.76942
  Beta  occ. eigenvalues --   -0.75530  -0.75045  -0.74418  -0.73496  -0.72469
  Beta  occ. eigenvalues --   -0.70087  -0.68824  -0.68122  -0.67710  -0.67447
  Beta  occ. eigenvalues --   -0.67282  -0.66916  -0.66186  -0.66007  -0.65076
  Beta  occ. eigenvalues --   -0.63662  -0.63012  -0.62480  -0.62216  -0.61988
  Beta  occ. eigenvalues --   -0.61883  -0.61585  -0.61549  -0.61318  -0.60953
  Beta  occ. eigenvalues --   -0.60801  -0.60428  -0.60085  -0.59638  -0.59185
  Beta  occ. eigenvalues --   -0.55469  -0.55357  -0.55138  -0.54844  -0.54563
  Beta  occ. eigenvalues --   -0.54412  -0.54219  -0.54074  -0.53985  -0.53807
  Beta  occ. eigenvalues --   -0.53687  -0.53465  -0.53164  -0.52784  -0.52571
  Beta  occ. eigenvalues --   -0.52322  -0.52126  -0.51908  -0.51591  -0.51429
  Beta  occ. eigenvalues --   -0.50930  -0.50616  -0.50192  -0.50018  -0.49795
  Beta  occ. eigenvalues --   -0.49439  -0.49299  -0.48892  -0.48769  -0.48680
  Beta  occ. eigenvalues --   -0.48394  -0.48300  -0.48170  -0.48059  -0.47992
  Beta  occ. eigenvalues --   -0.47603  -0.47569  -0.47449  -0.47326  -0.47041
  Beta  occ. eigenvalues --   -0.46627  -0.46485  -0.46028  -0.45853  -0.45693
  Beta  occ. eigenvalues --   -0.45472  -0.45037  -0.44395  -0.44187  -0.43909
  Beta  occ. eigenvalues --   -0.43472  -0.43204  -0.43155  -0.43098  -0.42678
  Beta  occ. eigenvalues --   -0.42565  -0.42283  -0.42052  -0.41659  -0.41299
  Beta  occ. eigenvalues --   -0.41063  -0.40626  -0.40374  -0.40248  -0.40074
  Beta  occ. eigenvalues --   -0.40061  -0.39827  -0.39712  -0.39509  -0.39284
  Beta  occ. eigenvalues --   -0.39216  -0.39107  -0.39003  -0.38713  -0.38496
  Beta  occ. eigenvalues --   -0.38178  -0.37032  -0.36276  -0.35399  -0.34163
  Beta  occ. eigenvalues --   -0.33065  -0.32972  -0.32829  -0.32644  -0.32417
  Beta  occ. eigenvalues --   -0.31724  -0.31539  -0.30977  -0.30703  -0.30468
  Beta  occ. eigenvalues --   -0.30114  -0.28532  -0.27524  -0.26197  -0.24862
  Beta  occ. eigenvalues --   -0.23838
  Beta virt. eigenvalues --   -0.01410  -0.00311   0.01230   0.02856   0.04500
  Beta virt. eigenvalues --    0.04883   0.05162   0.05356   0.05600   0.06097
  Beta virt. eigenvalues --    0.06385   0.07498   0.08727   0.09414   0.09765

 Mulliken charges and spin densities:
               1          2
     1  C    0.017198   0.000000
     2  C    0.029908   0.000000
     3  C    0.001972  -0.000000
     4  C    0.062338   0.000000
     5  C   -0.014105   0.000000
     6  C    0.026395  -0.000000
     7  C   -0.184396  -0.000000
     8  C    0.144937   0.000000
     9  O   -0.249136  -0.000000
    10  C    0.063353  -0.000000
    11  C    0.005007   0.000000
    12  C   -0.146941  -0.000000
    13  S    0.150778   0.000000
    14  C    0.068424  -0.000000
    15  C    0.009323  -0.000000
    16  C    0.009299   0.000000
    17  C    0.082318  -0.000000
    18  C   -0.003528  -0.000000
    19  C    0.001183   0.000000
    20  C   -0.184609   0.000000
    21  C    0.140859  -0.000000
    22  O   -0.249798  -0.000000
    23  C    0.063532  -0.000000
    24  C    0.007888   0.000000
    25  C   -0.145720  -0.000000
    26  S    0.149263  -0.000000
    27  C    0.068160   0.000000
    28  C    0.002541  -0.000000
    29  C   -0.005362   0.000000
    30  C    0.080464   0.000000
    31  C    0.007851   0.000000
    32  C    0.009385  -0.000000
    33  C   -0.181068   0.000000
    34  C    0.141617  -0.000000
    35  O   -0.250286   0.000000
    36  C    0.063532   0.000000
    37  C    0.008940   0.000000
    38  C   -0.142779   0.000000
    39  S    0.143887   0.000000
    40  C    0.066022   0.000000
    41  C    0.007737  -0.000000
    42  C    0.010642   0.000000
    43  C    0.082889  -0.000000
    44  C   -0.003679   0.000000
    45  C    0.001528  -0.000000
    46  C   -0.184451   0.000000
    47  C    0.141055  -0.000000
    48  O   -0.249777   0.000000
    49  C    0.063390  -0.000000
    50  C    0.007729   0.000000
    51  C   -0.145433  -0.000000
    52  S    0.150236  -0.000000
    53  C    0.067233   0.000000
    54  C    0.003750  -0.000000
    55  C   -0.002671   0.000000
    56  C    0.086778  -0.000000
    57  C    0.013555   0.000000
    58  C    0.006007  -0.000000
    59  C   -0.197815  -0.000000
    60  C    0.127786  -0.000000
    61  O   -0.247840  -0.000000
    62  C    0.060333  -0.000000
    63  C    0.027345   0.000000
    64  C   -0.120781  -0.000000
    65  S    0.157752   0.000000
    66  H   -0.020108  -0.000000
    67  H   -0.018505  -0.000000
    68  H   -0.022640   0.000000
    69  H   -0.017554  -0.000000
    70  H   -0.017942  -0.000000
    71  H    0.042657   0.000000
    72  H    0.045570  -0.000000
    73  H    0.050072   0.000000
    74  H   -0.012279   0.000000
    75  H   -0.018512   0.000000
    76  H   -0.020904   0.000000
    77  H   -0.015960  -0.000000
    78  H   -0.027350   0.000000
    79  H    0.046603  -0.000000
    80  H    0.051491   0.000000
    81  H    0.043743   0.000000
    82  H   -0.011581  -0.000000
    83  H   -0.027015  -0.000000
    84  H   -0.012656  -0.000000
    85  H   -0.020378   0.000000
    86  H   -0.018432  -0.000000
    87  H    0.046670   0.000000
    88  H    0.044550   0.000000
    89  H    0.051708  -0.000000
    90  H   -0.011000  -0.000000
    91  H   -0.015894   0.000000
    92  H   -0.020383   0.000000
    93  H   -0.015156   0.000000
    94  H   -0.026709   0.000000
    95  H    0.046791  -0.000000
    96  H    0.044068   0.000000
    97  H    0.051826  -0.000000
    98  H   -0.011151   0.000000
    99  H   -0.016556  -0.000000
   100  H   -0.013984   0.000000
   101  H   -0.020129  -0.000000
   102  H   -0.026966  -0.000000
   103  H    0.045485   0.000000
   104  H    0.045310   0.000000
   105  H    0.051723   0.000000
   106  H   -0.005441   0.000000
   107  H    0.024976  -0.000000
 Sum of Mulliken charges =  -0.00000  -0.00000

 Dipole moment (field-independent basis, Debye):
    X=            -10.2282    Y=              0.8442    Z=             -0.3059  Tot=             10.2676
 Quadrupole moment (field-independent basis, Debye-Ang):
   XX=           -316.8623   YY=           -336.4947   ZZ=           -423.4712
   XY=            -43.6560   XZ=              0.3620   YZ=             -1.6615

 Normal termination of Gaussian 16 at Thu Jul 23 14:55:25 2020.
