 Gaussian 16, Revision A.03,
 Gaussian 16:  EM64L-G16RevA.03 25-Dec-2016

 ---------------------------------------------------------------
 #P uLC-wPBE/cc-pVDZ iop(3/107=0496500000, 3/108=0496500000) opt
 ---------------------------------------------------------------

 -----------------
 H47 C55 S5 N5 O10
 -----------------
 Symbolic Z-matrix:
 Charge =  0 Multiplicity = 1

 SCF Done:  E(ULC-wPBE) =  -5138.30353562     A.U. after   18 cycles
 SCF Done:  E(ULC-wPBE) =  -5138.40242531     A.U. after   14 cycles
 SCF Done:  E(ULC-wPBE) =  -5138.50155011     A.U. after   14 cycles
 SCF Done:  E(ULC-wPBE) =  -5138.52763914     A.U. after   14 cycles
 SCF Done:  E(ULC-wPBE) =  -5138.53570243     A.U. after   14 cycles
 SCF Done:  E(ULC-wPBE) =  -5138.53916943     A.U. after   14 cycles
 SCF Done:  E(ULC-wPBE) =  -5138.54210379     A.U. after   16 cycles
 SCF Done:  E(ULC-wPBE) =  -5138.54374320     A.U. after   15 cycles
 SCF Done:  E(ULC-wPBE) =  -5138.54432278     A.U. after   13 cycles
 SCF Done:  E(ULC-wPBE) =  -5138.54457389     A.U. after   12 cycles
 SCF Done:  E(ULC-wPBE) =  -5138.54487982     A.U. after   10 cycles
 SCF Done:  E(ULC-wPBE) =  -5138.54488076     A.U. after    8 cycles
 SCF Done:  E(ULC-wPBE) =  -5138.54488097     A.U. after    8 cycles
 SCF Done:  E(ULC-wPBE) =  -5138.54488072     A.U. after   10 cycles
 SCF Done:  E(ULC-wPBE) =  -5138.54488116     A.U. after   10 cycles
 SCF Done:  E(ULC-wPBE) =  -5138.54488112     A.U. after    7 cycles
 SCF Done:  E(ULC-wPBE) =  -5138.54488125     A.U. after    7 cycles
 SCF Done:  E(ULC-wPBE) =  -5138.54488136     A.U. after    7 cycles
 SCF Done:  E(ULC-wPBE) =  -5138.54488126     A.U. after    6 cycles
 SCF Done:  E(ULC-wPBE) =  -5138.54488142     A.U. after    7 cycles
 Optimization completed.
    -- Stationary point found.

                         Standard orientation:
 ---------------------------------------------------------------------
 Center     Atomic      Atomic             Coordinates (Angstroms)
 Number     Number       Type             X           Y           Z
 ---------------------------------------------------------------------
      1          6           0      -18.491066    1.097674   -2.190547
      2          6           0      -17.551024    0.545767   -3.048237
      3          6           0      -16.347489    0.088924   -2.535205
      4          8           0      -15.372580   -0.458248   -3.286597
      5          6           0      -15.582087   -0.588782   -4.666690
      6          6           0      -16.085345    0.167601   -1.160601
      7          6           0      -17.042114    0.735198   -0.326681
      8          8           0      -16.774930    0.887683    0.994707
      9          6           0      -17.392465   -0.062998    1.835851
     10          6           0      -18.247679    1.198842   -0.838793
     11          6           0      -14.824827   -0.342483   -0.590264
     12          7           0      -14.767460   -1.188352    0.386662
     13          6           0      -13.475318   -1.432708    0.744593
     14          6           0      -12.519190   -0.768399    0.046969
     15         16           0      -13.289199    0.213164   -1.131831
     16          6           0      -11.060225   -0.844042    0.200380
     17          6           0      -10.232920   -0.736347   -0.909360
     18          6           0       -8.856455   -0.824126   -0.746939
     19          8           0       -7.979966   -0.737222   -1.762255
     20          6           0       -8.470947   -0.547098   -3.062469
     21          6           0       -8.299855   -1.026961    0.514036
     22          6           0       -9.144210   -1.125988    1.619453
     23          8           0       -8.537696   -1.286903    2.805073
     24          6           0       -9.330202   -1.415779    3.954530
     25          6           0      -10.521621   -1.031071    1.466478
     26          6           0       -6.839777   -1.149710    0.684276
     27          7           0       -6.230708   -2.238426    1.017568
     28          6           0       -4.888310   -2.025276    1.122454
     29          6           0       -4.450823   -0.763640    0.875109
     30         16           0       -5.808374    0.213288    0.486967
     31          6           0       -3.075052   -0.252391    0.898876
     32          6           0       -2.148071   -0.821281    1.770777
     33          6           0       -0.839752   -0.372156    1.782652
     34          8           0        0.110660   -0.875716    2.592753
     35          6           0       -0.234423   -1.908672    3.476272
     36          6           0       -0.433016    0.675962    0.945087
     37          6           0       -1.370350    1.229196    0.080344
     38          8           0       -0.990671    2.188572   -0.798863
     39          6           0       -1.369841    3.501883   -0.444953
     40          6           0       -2.679901    0.770536    0.055493
     41          6           0        0.943417    1.199899    0.975013
     42          7           0        1.230978    2.456404    1.088048
     43          6           0        2.576585    2.657299    1.022981
     44          6           0        3.345207    1.551522    0.851189
     45         16           0        2.315455    0.180050    0.777054
     46          6           0        4.807746    1.465561    0.762039
     47          6           0        5.528133    2.507927    0.205938
     48          6           0        6.912094    2.438156    0.134760
     49          8           0        7.592213    3.443277   -0.469084
     50          6           0        7.781746    4.594315    0.326176
     51          6           0        7.600685    1.326835    0.608652
     52          6           0        6.858845    0.265316    1.144257
     53          8           0        7.574000   -0.791623    1.572867
     54          6           0        6.894702   -1.882590    2.134290
     55          6           0        5.479772    0.338436    1.230949
     56          6           0        9.071941    1.287236    0.543921
     57          7           0        9.834337    2.238260    0.978158
     58          6           0       11.145800    1.962843    0.733773
     59          6           0       11.409349    0.792460    0.098401
     60         16           0        9.922068   -0.011102   -0.199607
     61          6           0       12.714414    0.235245   -0.277361
     62          6           0       12.915548   -1.143492   -0.297062
     63          6           0       14.149402   -1.660876   -0.650941
     64          8           0       14.416398   -2.979195   -0.695044
     65          6           0       13.393357   -3.886101   -0.383001
     66          6           0       15.217116   -0.811841   -0.971375
     67          6           0       14.994566    0.560158   -0.957064
     68          8           0       15.981036    1.406306   -1.344126
     69          6           0       16.658854    2.049242   -0.285518
     70          6           0       13.754446    1.082135   -0.617414
     71          6           0       16.549023   -1.341892   -1.315450
     72          7           0       17.643784   -0.951287   -0.747713
     73          6           0       18.728597   -1.567828   -1.302708
     74          6           0       18.461967   -2.432676   -2.306580
     75         16           0       16.778963   -2.495549   -2.572527
     76          1           0      -19.430277    1.463231   -2.599232
     77          1           0      -17.764491    0.480614   -4.109371
     78          1           0      -16.445140   -1.231009   -4.882792
     79          1           0      -14.681305   -1.055219   -5.069387
     80          1           0      -15.726110    0.387449   -5.146809
     81          1           0      -18.481417   -0.070483    1.695559
     82          1           0      -17.167330    0.233843    2.862643
     83          1           0      -16.981519   -1.060174    1.644212
     84          1           0      -18.965045    1.654908   -0.162730
     85          1           0      -13.270805   -2.151489    1.532422
     86          1           0      -10.670810   -0.610809   -1.893309
     87          1           0       -7.596609   -0.501903   -3.713878
     88          1           0       -9.109350   -1.382232   -3.376586
     89          1           0       -9.031448    0.392280   -3.147932
     90          1           0       -8.638338   -1.559900    4.786008
     91          1           0       -9.926850   -0.513145    4.137349
     92          1           0       -9.995980   -2.285272    3.887959
     93          1           0      -11.182681   -1.070671    2.324160
     94          1           0       -4.239702   -2.861801    1.365713
     95          1           0       -2.471448   -1.601453    2.450102
     96          1           0        0.676136   -2.158251    4.023618
     97          1           0       -0.585712   -2.798214    2.938330
     98          1           0       -1.004018   -1.586936    4.188938
     99          1           0       -0.836521    3.817544    0.458118
    100          1           0       -1.085569    4.145235   -1.280483
    101          1           0       -2.454105    3.574344   -0.288677
    102          1           0       -3.367420    1.203600   -0.665877
    103          1           0        2.967514    3.664080    1.134773
    104          1           0        5.028157    3.370488   -0.224087
    105          1           0        8.253769    5.342556   -0.314229
    106          1           0        8.441788    4.365321    1.169675
    107          1           0        6.823800    4.987436    0.691271
    108          1           0        7.660213   -2.612910    2.401862
    109          1           0        6.345898   -1.591192    3.038567
    110          1           0        6.199491   -2.336505    1.416909
    111          1           0        4.912255   -0.471000    1.677188
    112          1           0       11.905472    2.660862    1.072238
    113          1           0       12.101417   -1.803421   -0.017480
    114          1           0       13.825111   -4.882057   -0.495110
    115          1           0       12.542211   -3.783951   -1.067939
    116          1           0       13.046346   -3.759704    0.650245
    117          1           0       15.959207    2.598021    0.358705
    118          1           0       17.219112    1.315742    0.304103
    119          1           0       17.353104    2.757510   -0.743010
    120          1           0       13.610536    2.157053   -0.670415
    121          1           0       19.719654   -1.342805   -0.920981
    122          1           0       19.158200   -3.032631   -2.880285
 ---------------------------------------------------------------------

 Alpha  occ. eigenvalues --   -1.27091  -1.27061  -1.27006  -1.26841  -1.26821
 Alpha  occ. eigenvalues --   -1.26467  -1.24174  -1.24140  -1.24130  -1.23931
 Alpha  occ. eigenvalues --   -1.16546  -1.16481  -1.16405  -1.16088  -1.15894
 Alpha  occ. eigenvalues --   -1.07118  -1.06976  -1.06702  -1.06542  -1.05949
 Alpha  occ. eigenvalues --   -1.01342  -1.01037  -1.00555  -1.00239  -0.98118
 Alpha  occ. eigenvalues --   -0.97935  -0.97227  -0.96880  -0.96510  -0.95995
 Alpha  occ. eigenvalues --   -0.94906  -0.94559  -0.94490  -0.94395  -0.94262
 Alpha  occ. eigenvalues --   -0.93075  -0.92135  -0.91430  -0.90669  -0.90397
 Alpha  occ. eigenvalues --   -0.89392  -0.89000  -0.88536  -0.88504  -0.87754
 Alpha  occ. eigenvalues --   -0.86975  -0.86158  -0.86057  -0.85884  -0.85795
 Alpha  occ. eigenvalues --   -0.82709  -0.81801  -0.80684  -0.79975  -0.79351
 Alpha  occ. eigenvalues --   -0.76184  -0.76083  -0.76014  -0.75897  -0.75614
 Alpha  occ. eigenvalues --   -0.74551  -0.73549  -0.73490  -0.73334  -0.73071
 Alpha  occ. eigenvalues --   -0.72722  -0.72258  -0.72030  -0.71830  -0.71655
 Alpha  occ. eigenvalues --   -0.69546  -0.69257  -0.68908  -0.68410  -0.68080
 Alpha  occ. eigenvalues --   -0.67326  -0.67096  -0.66804  -0.66795  -0.66754
 Alpha  occ. eigenvalues --   -0.65792  -0.65136  -0.64989  -0.64500  -0.64395
 Alpha  occ. eigenvalues --   -0.64299  -0.63909  -0.63882  -0.63837  -0.63758
 Alpha  occ. eigenvalues --   -0.63736  -0.63563  -0.63380  -0.63306  -0.63089
 Alpha  occ. eigenvalues --   -0.62941  -0.62391  -0.61809  -0.61366  -0.61152
 Alpha  occ. eigenvalues --   -0.61018  -0.60779  -0.60726  -0.60400  -0.59795
 Alpha  occ. eigenvalues --   -0.59688  -0.59354  -0.59169  -0.59111  -0.58979
 Alpha  occ. eigenvalues --   -0.57570  -0.57367  -0.57174  -0.57084  -0.56900
 Alpha  occ. eigenvalues --   -0.56706  -0.56672  -0.56584  -0.56353  -0.56115
 Alpha  occ. eigenvalues --   -0.55991  -0.55848  -0.55537  -0.55231  -0.55099
 Alpha  occ. eigenvalues --   -0.55034  -0.54023  -0.53866  -0.53743  -0.53455
 Alpha  occ. eigenvalues --   -0.53235  -0.53094  -0.52848  -0.52737  -0.52667
 Alpha  occ. eigenvalues --   -0.52514  -0.52194  -0.52004  -0.51869  -0.51597
 Alpha  occ. eigenvalues --   -0.51534  -0.49449  -0.49275  -0.49164  -0.49091
 Alpha  occ. eigenvalues --   -0.48974  -0.48676  -0.48592  -0.48420  -0.48251
 Alpha  occ. eigenvalues --   -0.48081  -0.48010  -0.47819  -0.47524  -0.47400
 Alpha  occ. eigenvalues --   -0.47197  -0.46872  -0.46590  -0.46451  -0.46263
 Alpha  occ. eigenvalues --   -0.46023  -0.45667  -0.41299  -0.41069  -0.40989
 Alpha  occ. eigenvalues --   -0.40796  -0.40579  -0.40446  -0.40334  -0.40319
 Alpha  occ. eigenvalues --   -0.40165  -0.40018  -0.39924  -0.39860  -0.39572
 Alpha  occ. eigenvalues --   -0.39401  -0.38658  -0.38470  -0.38279  -0.37631
 Alpha  occ. eigenvalues --   -0.36275  -0.35690  -0.34779  -0.34544  -0.34483
 Alpha  occ. eigenvalues --   -0.34201  -0.33803  -0.33631  -0.32431  -0.31578
 Alpha  occ. eigenvalues --   -0.30689
 Alpha virt. eigenvalues --    0.01405   0.02511   0.03338   0.04912   0.06876
 Alpha virt. eigenvalues --    0.07749   0.08814   0.08923   0.09085   0.09221
 Alpha virt. eigenvalues --    0.09332   0.09772   0.10664   0.11103   0.11893

  Beta  occ. eigenvalues --  -88.37607 -88.37559 -88.37478 -88.37148 -88.37093
  Beta  occ. eigenvalues --  -19.07233 -19.07212 -19.07159 -19.06942 -19.06843
  Beta  occ. eigenvalues --  -19.06555 -19.04075 -19.03991 -19.03988 -19.03799
  Beta  occ. eigenvalues --  -14.26503 -14.26420 -14.26358 -14.25972 -14.25834
  Beta  occ. eigenvalues --  -10.25246 -10.25204 -10.25105 -10.25064 -10.24998
  Beta  occ. eigenvalues --  -10.24988 -10.24510 -10.24477 -10.24399 -10.24023
  Beta  occ. eigenvalues --  -10.24000 -10.23984 -10.23981 -10.23902 -10.23765
  Beta  occ. eigenvalues --  -10.23427 -10.23410 -10.23401 -10.23126 -10.23018
  Beta  occ. eigenvalues --  -10.22828 -10.21037 -10.20970 -10.20931 -10.20875
  Beta  occ. eigenvalues --  -10.20849 -10.20780 -10.20760 -10.20757 -10.20724
  Beta  occ. eigenvalues --  -10.20671 -10.20603 -10.20557 -10.20031 -10.19958
  Beta  occ. eigenvalues --  -10.19849 -10.19754 -10.19698 -10.19522 -10.18978
  Beta  occ. eigenvalues --  -10.18783 -10.18769 -10.18743 -10.18532 -10.18166
  Beta  occ. eigenvalues --  -10.17811 -10.17705 -10.17702 -10.17618 -10.17359
  Beta  occ. eigenvalues --  -10.17274 -10.17141 -10.17103 -10.17049 -10.16960
  Beta  occ. eigenvalues --   -7.98668  -7.98618  -7.98536  -7.98224  -7.98166
  Beta  occ. eigenvalues --   -5.99709  -5.99659  -5.99577  -5.99262  -5.99200
  Beta  occ. eigenvalues --   -5.99168  -5.99119  -5.99037  -5.98798  -5.98747
  Beta  occ. eigenvalues --   -5.98725  -5.98666  -5.98657  -5.98354  -5.98311
  Beta  occ. eigenvalues --   -1.27091  -1.27061  -1.27006  -1.26841  -1.26821
  Beta  occ. eigenvalues --   -1.26467  -1.24174  -1.24140  -1.24130  -1.23931
  Beta  occ. eigenvalues --   -1.16546  -1.16481  -1.16405  -1.16088  -1.15894
  Beta  occ. eigenvalues --   -1.07118  -1.06976  -1.06702  -1.06542  -1.05949
  Beta  occ. eigenvalues --   -1.01342  -1.01037  -1.00555  -1.00239  -0.98118
  Beta  occ. eigenvalues --   -0.97935  -0.97227  -0.96880  -0.96510  -0.95995
  Beta  occ. eigenvalues --   -0.94906  -0.94559  -0.94490  -0.94395  -0.94262
  Beta  occ. eigenvalues --   -0.93075  -0.92135  -0.91430  -0.90669  -0.90397
  Beta  occ. eigenvalues --   -0.89392  -0.89000  -0.88536  -0.88504  -0.87754
  Beta  occ. eigenvalues --   -0.86975  -0.86158  -0.86057  -0.85884  -0.85795
  Beta  occ. eigenvalues --   -0.82709  -0.81801  -0.80684  -0.79975  -0.79351
  Beta  occ. eigenvalues --   -0.76184  -0.76083  -0.76014  -0.75897  -0.75614
  Beta  occ. eigenvalues --   -0.74551  -0.73549  -0.73490  -0.73334  -0.73071
  Beta  occ. eigenvalues --   -0.72722  -0.72258  -0.72030  -0.71830  -0.71655
  Beta  occ. eigenvalues --   -0.69546  -0.69257  -0.68908  -0.68410  -0.68080
  Beta  occ. eigenvalues --   -0.67326  -0.67096  -0.66804  -0.66795  -0.66754
  Beta  occ. eigenvalues --   -0.65792  -0.65136  -0.64989  -0.64500  -0.64395
  Beta  occ. eigenvalues --   -0.64299  -0.63909  -0.63882  -0.63837  -0.63758
  Beta  occ. eigenvalues --   -0.63736  -0.63563  -0.63380  -0.63306  -0.63089
  Beta  occ. eigenvalues --   -0.62941  -0.62391  -0.61809  -0.61366  -0.61152
  Beta  occ. eigenvalues --   -0.61018  -0.60779  -0.60726  -0.60400  -0.59795
  Beta  occ. eigenvalues --   -0.59688  -0.59354  -0.59169  -0.59111  -0.58979
  Beta  occ. eigenvalues --   -0.57570  -0.57367  -0.57174  -0.57084  -0.56900
  Beta  occ. eigenvalues --   -0.56706  -0.56672  -0.56584  -0.56353  -0.56115
  Beta  occ. eigenvalues --   -0.55991  -0.55848  -0.55537  -0.55231  -0.55099
  Beta  occ. eigenvalues --   -0.55034  -0.54023  -0.53866  -0.53743  -0.53455
  Beta  occ. eigenvalues --   -0.53235  -0.53094  -0.52848  -0.52737  -0.52667
  Beta  occ. eigenvalues --   -0.52514  -0.52194  -0.52004  -0.51869  -0.51597
  Beta  occ. eigenvalues --   -0.51534  -0.49449  -0.49275  -0.49164  -0.49091
  Beta  occ. eigenvalues --   -0.48974  -0.48676  -0.48592  -0.48420  -0.48251
  Beta  occ. eigenvalues --   -0.48081  -0.48010  -0.47819  -0.47524  -0.47400
  Beta  occ. eigenvalues --   -0.47197  -0.46872  -0.46590  -0.46451  -0.46263
  Beta  occ. eigenvalues --   -0.46023  -0.45667  -0.41299  -0.41069  -0.40989
  Beta  occ. eigenvalues --   -0.40796  -0.40579  -0.40446  -0.40334  -0.40319
  Beta  occ. eigenvalues --   -0.40165  -0.40018  -0.39924  -0.39860  -0.39572
  Beta  occ. eigenvalues --   -0.39401  -0.38658  -0.38470  -0.38279  -0.37631
  Beta  occ. eigenvalues --   -0.36275  -0.35690  -0.34779  -0.34544  -0.34483
  Beta  occ. eigenvalues --   -0.34201  -0.33803  -0.33631  -0.32431  -0.31578
  Beta  occ. eigenvalues --   -0.30689
  Beta virt. eigenvalues --    0.01405   0.02511   0.03338   0.04912   0.06876
  Beta virt. eigenvalues --    0.07749   0.08814   0.08923   0.09085   0.09221
  Beta virt. eigenvalues --    0.09332   0.09772   0.10664   0.11103   0.11893

 Mulliken charges and spin densities:
               1          2
     1  C    0.019611   0.000000
     2  C   -0.076305  -0.000000
     3  C    0.132313   0.000000
     4  O   -0.262393  -0.000000
     5  C    0.030600   0.000000
     6  C   -0.049578  -0.000000
     7  C    0.050045   0.000000
     8  O   -0.274230   0.000000
     9  C    0.054247  -0.000000
    10  C    0.002889  -0.000000
    11  C    0.030931   0.000000
    12  N   -0.192662  -0.000000
    13  C    0.118786   0.000000
    14  C   -0.236930   0.000000
    15  S    0.184939   0.000000
    16  C    0.028158   0.000000
    17  C   -0.075600  -0.000000
    18  C    0.162649   0.000000
    19  O   -0.256038   0.000000
    20  C    0.030486   0.000000
    21  C   -0.090303  -0.000000
    22  C    0.169660   0.000000
    23  O   -0.248126  -0.000000
    24  C    0.032051   0.000000
    25  C   -0.082418  -0.000000
    26  C    0.019433  -0.000000
    27  N   -0.169220   0.000000
    28  C    0.104634   0.000000
    29  C   -0.225394   0.000000
    30  S    0.175643  -0.000000
    31  C    0.041296   0.000000
    32  C   -0.073789  -0.000000
    33  C    0.144508   0.000000
    34  O   -0.264366   0.000000
    35  C    0.033026   0.000000
    36  C   -0.044645   0.000000
    37  C    0.055609   0.000000
    38  O   -0.273619  -0.000000
    39  C    0.054273   0.000000
    40  C    0.010497  -0.000000
    41  C    0.028416  -0.000000
    42  N   -0.193168   0.000000
    43  C    0.121940  -0.000000
    44  C   -0.234075  -0.000000
    45  S    0.181404   0.000000
    46  C    0.045434  -0.000000
    47  C    0.003524  -0.000000
    48  C    0.058902   0.000000
    49  O   -0.273111  -0.000000
    50  C    0.055229   0.000000
    51  C   -0.043776  -0.000000
    52  C    0.140741  -0.000000
    53  O   -0.263791   0.000000
    54  C    0.031906   0.000000
    55  C   -0.069076   0.000000
    56  C    0.027611  -0.000000
    57  N   -0.193651   0.000000
    58  C    0.121671   0.000000
    59  C   -0.233122  -0.000000
    60  S    0.182328   0.000000
    61  C    0.044451   0.000000
    62  C   -0.069522   0.000000
    63  C    0.141715  -0.000000
    64  O   -0.261967   0.000000
    65  C    0.031799  -0.000000
    66  C   -0.039163  -0.000000
    67  C    0.058682   0.000000
    68  O   -0.273654   0.000000
    69  C    0.055357   0.000000
    70  C    0.002916  -0.000000
    71  C    0.012124   0.000000
    72  N   -0.197022  -0.000000
    73  C    0.100494   0.000000
    74  C   -0.207085  -0.000000
    75  S    0.179484  -0.000000
    76  H    0.023606   0.000000
    77  H    0.019312   0.000000
    78  H    0.059217  -0.000000
    79  H    0.071763  -0.000000
    80  H    0.057753  -0.000000
    81  H    0.035290  -0.000000
    82  H    0.057278  -0.000000
    83  H    0.058260   0.000000
    84  H    0.017320  -0.000000
    85  H    0.028534  -0.000000
    86  H    0.017339  -0.000000
    87  H    0.073925   0.000000
    88  H    0.060193   0.000000
    89  H    0.058005  -0.000000
    90  H    0.072442  -0.000000
    91  H    0.058321  -0.000000
    92  H    0.057434  -0.000000
    93  H    0.013147   0.000000
    94  H    0.025702  -0.000000
    95  H    0.014097  -0.000000
    96  H    0.070845  -0.000000
    97  H    0.057914   0.000000
    98  H    0.062100  -0.000000
    99  H    0.058116  -0.000000
   100  H    0.058612  -0.000000
   101  H    0.036854   0.000000
   102  H    0.018511  -0.000000
   103  H    0.029317   0.000000
   104  H    0.014858   0.000000
   105  H    0.059287  -0.000000
   106  H    0.058325  -0.000000
   107  H    0.034343  -0.000000
   108  H    0.071140   0.000000
   109  H    0.061046  -0.000000
   110  H    0.059838  -0.000000
   111  H    0.018755   0.000000
   112  H    0.029169  -0.000000
   113  H    0.018166  -0.000000
   114  H    0.072905   0.000000
   115  H    0.059385  -0.000000
   116  H    0.059751  -0.000000
   117  H    0.033623   0.000000
   118  H    0.058646  -0.000000
   119  H    0.058255  -0.000000
   120  H    0.013907  -0.000000
   121  H    0.027806   0.000000
   122  H    0.054973  -0.000000
 Sum of Mulliken charges =  -0.00000   0.00000

 Dipole moment (field-independent basis, Debye):
    X=             -5.6954    Y=             -3.4755    Z=              0.8888  Tot=              6.7310
 Quadrupole moment (field-independent basis, Debye-Ang):
   XX=           -400.6690   YY=           -435.5677   ZZ=           -420.5934
   XY=            -32.3193   XZ=             49.5250   YZ=             -9.0388

 Normal termination of Gaussian 16 at Fri Jul 24 01:33:35 2020.
