 Gaussian 16, Revision A.03,
 Gaussian 16:  EM64L-G16RevA.03 25-Dec-2016

 ---------------------------------------------------------------
 #P uLC-wPBE/cc-pVDZ iop(3/107=0319300000, 3/108=0319300000) opt
 ---------------------------------------------------------------

 -----------
 H5 C7 S2 N1
 -----------
 Symbolic Z-matrix:
 Charge =  0 Multiplicity = 1

 SCF Done:  E(ULC-wPBE) =  -1120.37719810     A.U. after   16 cycles
 SCF Done:  E(ULC-wPBE) =  -1120.39317222     A.U. after   14 cycles
 SCF Done:  E(ULC-wPBE) =  -1120.39480459     A.U. after   14 cycles
 SCF Done:  E(ULC-wPBE) =  -1120.39483647     A.U. after   13 cycles
 SCF Done:  E(ULC-wPBE) =  -1120.39524121     A.U. after   12 cycles
 SCF Done:  E(ULC-wPBE) =  -1120.39525011     A.U. after   10 cycles
 SCF Done:  E(ULC-wPBE) =  -1120.39525448     A.U. after   10 cycles
 SCF Done:  E(ULC-wPBE) =  -1120.39525586     A.U. after   10 cycles
 SCF Done:  E(ULC-wPBE) =  -1120.39525672     A.U. after   10 cycles
 SCF Done:  E(ULC-wPBE) =  -1120.39525770     A.U. after   10 cycles
 SCF Done:  E(ULC-wPBE) =  -1120.39525798     A.U. after    9 cycles
 Optimization completed.
    -- Stationary point found.

                         Standard orientation:
 ---------------------------------------------------------------------
 Center     Atomic      Atomic             Coordinates (Angstroms)
 Number     Number       Type             X           Y           Z
 ---------------------------------------------------------------------
      1          6           0       -3.155083   -0.162846    0.000097
      2          6           0       -2.802541    1.159085   -0.000126
      3          6           0       -1.391028    1.338481   -0.000235
      4          6           0       -0.707722    0.147299   -0.000099
      5         16           0       -1.788948   -1.201265    0.000138
      6          6           0        0.732519   -0.096985   -0.000072
      7          7           0        1.255188   -1.292948   -0.000202
      8          6           0        2.624562   -1.221278   -0.000147
      9          6           0        3.156546    0.033686    0.000048
     10         16           0        1.891540    1.199702    0.000191
     11          1           0       -4.160617   -0.586058    0.000301
     12          1           0       -3.524135    1.978488   -0.000261
     13          1           0       -0.898883    2.314266   -0.000394
     14          1           0        3.206956   -2.145578   -0.000277
     15          1           0        4.205387    0.329872   -0.000035
 ---------------------------------------------------------------------

 The electronic state is 1-A.
 Alpha  occ. eigenvalues --  -88.28807 -88.27993 -14.17751 -10.15403 -10.11974
 Alpha  occ. eigenvalues --  -10.11294 -10.11053 -10.10918 -10.09116 -10.08704
 Alpha  occ. eigenvalues --   -7.89477  -7.88572  -5.91230  -5.90747  -5.90378
 Alpha  occ. eigenvalues --   -5.90351  -5.89832  -5.89473  -1.07828  -1.00241
 Alpha  occ. eigenvalues --   -0.91691  -0.88758  -0.85242  -0.82086  -0.72055
 Alpha  occ. eigenvalues --   -0.70001  -0.65961  -0.63786  -0.62449  -0.57996
 Alpha  occ. eigenvalues --   -0.54366  -0.53285  -0.50798  -0.49915  -0.49603
 Alpha  occ. eigenvalues --   -0.47723  -0.46385  -0.44567  -0.39220  -0.37613
 Alpha  occ. eigenvalues --   -0.37370  -0.35005  -0.30736
 Alpha virt. eigenvalues --    0.01332   0.08794   0.10706   0.12614   0.13050
 Alpha virt. eigenvalues --    0.15189   0.16544   0.16636   0.18124   0.19293
 Alpha virt. eigenvalues --    0.21028   0.22733   0.25678   0.30905   0.32967

  Beta  occ. eigenvalues --  -88.28807 -88.27993 -14.17751 -10.15403 -10.11974
  Beta  occ. eigenvalues --  -10.11294 -10.11053 -10.10918 -10.09116 -10.08704
  Beta  occ. eigenvalues --   -7.89477  -7.88572  -5.91230  -5.90747  -5.90378
  Beta  occ. eigenvalues --   -5.90351  -5.89832  -5.89473  -1.07828  -1.00241
  Beta  occ. eigenvalues --   -0.91691  -0.88758  -0.85242  -0.82086  -0.72055
  Beta  occ. eigenvalues --   -0.70001  -0.65961  -0.63786  -0.62449  -0.57996
  Beta  occ. eigenvalues --   -0.54366  -0.53285  -0.50798  -0.49915  -0.49603
  Beta  occ. eigenvalues --   -0.47723  -0.46385  -0.44567  -0.39220  -0.37613
  Beta  occ. eigenvalues --   -0.37370  -0.35005  -0.30736
  Beta virt. eigenvalues --    0.01332   0.08794   0.10706   0.12614   0.13050
  Beta virt. eigenvalues --    0.15189   0.16544   0.16636   0.18124   0.19293
  Beta virt. eigenvalues --    0.21028   0.22733   0.25678   0.30905   0.32967

 Mulliken charges and spin densities:
               1          2
     1  C   -0.138795   0.000000
     2  C    0.056159  -0.000000
     3  C   -0.007591  -0.000000
     4  C   -0.141141   0.000000
     5  S    0.207997  -0.000000
     6  C    0.028709   0.000000
     7  N   -0.195044  -0.000000
     8  C    0.117078   0.000000
     9  C   -0.175733  -0.000000
    10  S    0.153623   0.000000
    11  H    0.034532  -0.000000
    12  H    0.001899   0.000000
    13  H    0.004506  -0.000000
    14  H    0.014471  -0.000000
    15  H    0.039330  -0.000000
 Sum of Mulliken charges =  -0.00000  -0.00000

 Dipole moment (field-independent basis, Debye):
    X=              0.2674    Y=              1.4080    Z=              0.0001  Tot=              1.4332
 Quadrupole moment (field-independent basis, Debye-Ang):
   XX=            -55.2334   YY=            -68.8476   ZZ=            -75.0775
   XY=             -0.7290   XZ=             -0.0009   YZ=             -0.0010

 Normal termination of Gaussian 16 at Fri Jul 24 22:08:24 2020.
