 Gaussian 16, Revision A.03,
 Gaussian 16:  EM64L-G16RevA.03 25-Dec-2016

 ---------------------------------------------------------------
 #P uLC-wPBE/cc-pVDZ iop(3/107=0138100000, 3/108=0138100000) opt
 ---------------------------------------------------------------

 ----------
 H51 C84 F7
 ----------
 Symbolic Z-matrix:
 Charge =  0 Multiplicity = 1

 SCF Done:  E(ULC-wPBE) =  -3926.79694225     A.U. after   16 cycles
 SCF Done:  E(ULC-wPBE) =  -3926.90585333     A.U. after   14 cycles
 SCF Done:  E(ULC-wPBE) =  -3927.01864446     A.U. after   17 cycles
 SCF Done:  E(ULC-wPBE) =  -3927.05368686     A.U. after   16 cycles
 SCF Done:  E(ULC-wPBE) =  -3927.06424415     A.U. after   17 cycles
 SCF Done:  E(ULC-wPBE) =  -3927.06774133     A.U. after   16 cycles
 SCF Done:  E(ULC-wPBE) =  -3927.06908487     A.U. after   17 cycles
 SCF Done:  E(ULC-wPBE) =  -3927.07004866     A.U. after   17 cycles
 SCF Done:  E(ULC-wPBE) =  -3927.07150723     A.U. after   17 cycles
 SCF Done:  E(ULC-wPBE) =  -3927.07221406     A.U. after   13 cycles
 SCF Done:  E(ULC-wPBE) =  -3927.07241207     A.U. after   13 cycles
 SCF Done:  E(ULC-wPBE) =  -3927.07244214     A.U. after   12 cycles
 SCF Done:  E(ULC-wPBE) =  -3927.07243852     A.U. after   13 cycles
 SCF Done:  E(ULC-wPBE) =  -3927.07247048     A.U. after   11 cycles
 SCF Done:  E(ULC-wPBE) =  -3927.07247049     A.U. after   11 cycles
 SCF Done:  E(ULC-wPBE) =  -3927.07247268     A.U. after   10 cycles
 SCF Done:  E(ULC-wPBE) =  -3927.07247245     A.U. after    7 cycles
 SCF Done:  E(ULC-wPBE) =  -3927.07247332     A.U. after    7 cycles
 SCF Done:  E(ULC-wPBE) =  -3927.07247324     A.U. after    6 cycles
 Optimization completed.
    -- Stationary point found.

                         Standard orientation:
 ---------------------------------------------------------------------
 Center     Atomic      Atomic             Coordinates (Angstroms)
 Number     Number       Type             X           Y           Z
 ---------------------------------------------------------------------
      1          6           0       29.746464    0.411514   -0.336127
      2          6           0       28.971152    0.881746   -1.404692
      3          6           0       27.573704    0.826099   -1.337987
      4          6           0       26.922308    0.300411   -0.202334
      5          6           0       27.714689   -0.176370    0.863475
      6          6           0       29.111707   -0.117422    0.796384
      7          6           0       25.436190    0.283730   -0.139702
      8          6           0       24.667424    1.364597   -0.621371
      9          6           0       23.270506    1.359284   -0.585169
     10          6           0       22.564092    0.257056   -0.060698
     11          6           0       23.312622   -0.832214    0.425132
     12          6           0       24.705137   -0.801221    0.379867
     13          9           0       25.371537   -1.883631    0.863807
     14          6           0       21.078088    0.239555   -0.017827
     15          6           0       20.344166    1.408489    0.270748
     16          6           0       18.947387    1.396980    0.312753
     17          6           0       18.224122    0.212451    0.059797
     18          6           0       18.957833   -0.958125   -0.224155
     19          6           0       20.354879   -0.945462   -0.262165
     20          6           0       16.738110    0.181757    0.060589
     21          6           0       16.017445   -0.570842   -0.891411
     22          6           0       14.621262   -0.624331   -0.895703
     23          6           0       13.866585    0.079248    0.065878
     24          6           0       14.566522    0.836073    1.025140
     25          6           0       15.959283    0.875443    1.006330
     26          9           0       16.577511    1.623936    1.959056
     27          6           0       12.380757    0.030299    0.071768
     28          6           0       11.656159   -0.003750    1.280918
     29          6           0       10.259762   -0.055246    1.289183
     30          6           0        9.527593   -0.067058    0.083307
     31          6           0       10.251989   -0.036609   -1.126388
     32          6           0       11.648855    0.010817   -1.132778
     33          6           0        8.041481   -0.083370    0.064965
     34          6           0        7.308599    0.682436   -0.866911
     35          6           0        5.912093    0.666512   -0.908712
     36          6           0        5.169601   -0.128294   -0.010777
     37          6           0        5.882021   -0.900530    0.926791
     38          6           0        7.274789   -0.865093    0.949954
     39          9           0        7.905615   -1.633197    1.878420
     40          6           0        3.683572   -0.153625   -0.044873
     41          6           0        2.968233   -1.346433    0.186934
     42          6           0        1.571613   -1.374006    0.151005
     43          6           0        0.829868   -0.203072   -0.111925
     44          6           0        1.545009    0.989422   -0.347732
     45          6           0        2.942096    1.014325   -0.315226
     46          6           0       -0.656424   -0.197678   -0.117649
     47          6           0       -1.390535    0.872774    0.436615
     48          6           0       -2.787419    0.901315    0.426247
     49          6           0       -3.529176   -0.151712   -0.148419
     50          6           0       -2.815531   -1.229094   -0.707782
     51          6           0       -1.422375   -1.235101   -0.682638
     52          9           0       -0.790452   -2.303165   -1.239310
     53          6           0       -5.015619   -0.133995   -0.164452
     54          6           0       -5.748809    0.378240    0.925074
     55          6           0       -7.146307    0.394112    0.909313
     56          6           0       -7.870234   -0.100711   -0.195303
     57          6           0       -7.136872   -0.605942   -1.289532
     58          6           0       -5.739774   -0.624470   -1.270475
     59          6           0       -9.356378   -0.106412   -0.173985
     60          6           0      -10.074014   -0.420222    1.000146
     61          6           0      -11.470550   -0.416757    1.042012
     62          6           0      -12.228752   -0.092704   -0.102300
     63          6           0      -11.531784    0.224134   -1.284129
     64          6           0      -10.138508    0.211185   -1.300717
     65          9           0       -9.523099    0.526474   -2.472053
     66          6           0      -13.715008   -0.086359   -0.069524
     67          6           0      -14.456701    0.877598   -0.781991
     68          6           0      -15.853888    0.882056   -0.747152
     69          6           0      -16.569066   -0.076517    0.000433
     70          6           0      -15.827540   -1.046562    0.707109
     71          6           0      -14.430518   -1.047170    0.674239
     72          6           0      -18.053896   -0.031187    0.049304
     73          6           0      -18.750656    1.194023    0.123296
     74          6           0      -20.146161    1.255857    0.153999
     75          6           0      -20.924297    0.080409    0.109211
     76          6           0      -20.248359   -1.152641    0.034906
     77          6           0      -18.855650   -1.187728    0.008132
     78          9           0      -18.261161   -2.409027   -0.064814
     79          6           0      -22.409629    0.133261    0.140933
     80          6           0      -23.087537    1.081907    0.933935
     81          6           0      -24.483530    1.138515    0.963086
     82          6           0      -25.261605    0.241446    0.201844
     83          6           0      -24.584045   -0.704578   -0.594881
     84          6           0      -23.187717   -0.758729   -0.624556
     85          6           0      -26.748225    0.256211    0.244216
     86          6           0      -27.490673   -0.944486    0.257586
     87          6           0      -28.890039   -0.948221    0.279005
     88          6           0      -29.593060    0.264468    0.286218
     89          6           0      -28.889266    1.474734    0.274164
     90          6           0      -27.494001    1.450763    0.255323
     91          9           0      -26.841133    2.643675    0.233865
     92          1           0       30.843591    0.453747   -0.387168
     93          1           0       29.457194    1.289326   -2.302498
     94          1           0       26.973732    1.176739   -2.189981
     95          1           0       27.229052   -0.588733    1.756926
     96          1           0       29.710451   -0.487701    1.640693
     97          1           0       25.193539    2.241263   -1.024602
     98          1           0       22.716500    2.217706   -0.988652
     99          1           0       22.826177   -1.712622    0.865319
    100          1           0       20.879576    2.343064    0.490213
    101          1           0       18.407529    2.323223    0.545640
    102          1           0       18.423130   -1.901204   -0.406092
    103          1           0       20.895564   -1.871498   -0.504180
    104          1           0       16.580316   -1.119368   -1.659643
    105          1           0       14.106860   -1.239158   -1.646657
    106          1           0       14.040020    1.422747    1.789383
    107          1           0       12.198514   -0.013279    2.237087
    108          1           0        9.727246   -0.086265    2.247863
    109          1           0        9.710070   -0.063710   -2.082420
    110          1           0       12.182355    0.052213   -2.092933
    111          1           0        7.861831    1.320086   -1.570631
    112          1           0        5.387832    1.266522   -1.664805
    113          1           0        5.365437   -1.525874    1.666734
    114          1           0        3.517891   -2.279223    0.377397
    115          1           0        1.046539   -2.320345    0.330770
    116          1           0        0.995474    1.914216   -0.573928
    117          1           0        3.468218    1.964397   -0.484896
    118          1           0       -0.837862    1.700850    0.902145
    119          1           0       -3.312836    1.765627    0.854519
    120          1           0       -3.331223   -2.089825   -1.153449
    121          1           0       -5.215607    0.753965    1.809810
    122          1           0       -7.689343    0.811521    1.769127
    123          1           0       -7.668998   -0.991106   -2.168192
    124          1           0       -5.197070   -1.008982   -2.145763
    125          1           0       -9.508334   -0.689144    1.903225
    126          1           0      -11.982991   -0.651642    1.984741
    127          1           0      -12.060547    0.465120   -2.215674
    128          1           0      -13.929944    1.649908   -1.360395
    129          1           0      -16.404077    1.638877   -1.324125
    130          1           0      -16.353124   -1.812002    1.291443
    131          1           0      -13.881727   -1.827296    1.220618
    132          1           0      -18.168649    2.125041    0.171713
    133          1           0      -20.642614    2.234852    0.193856
    134          1           0      -20.792964   -2.105823    0.017219
    135          1           0      -22.509541    1.772612    1.564113
    136          1           0      -24.979444    1.880578    1.601216
    137          1           0      -25.163045   -1.392868   -1.226875
    138          1           0      -22.690738   -1.486813   -1.281338
    139          1           0      -26.942457   -1.897019    0.273594
    140          1           0      -29.432996   -1.902884    0.297652
    141          1           0      -30.691561    0.272880    0.304821
    142          1           0      -29.400103    2.446499    0.273658
 ---------------------------------------------------------------------

 Alpha virt. eigenvalues --    0.06663   0.07263   0.07626   0.09828   0.10501
 Alpha virt. eigenvalues --    0.10556   0.10636   0.10767   0.10905   0.10970
 Alpha virt. eigenvalues --    0.11104   0.11267   0.11424   0.11483   0.11555

  Beta  occ. eigenvalues --  -24.36792 -24.36771 -24.36747 -24.36745 -24.36710
  Beta  occ. eigenvalues --  -24.36641 -24.36392 -10.06422 -10.06406 -10.06382
  Beta  occ. eigenvalues --  -10.06365 -10.06348 -10.06277 -10.06038 -10.00373
  Beta  occ. eigenvalues --  -10.00370 -10.00350 -10.00318 -10.00250 -10.00228
  Beta  occ. eigenvalues --  -10.00223 -10.00207 -10.00185 -10.00150 -10.00075
  Beta  occ. eigenvalues --  -10.00054 -10.00049 -10.00037 -10.00028 -10.00012
  Beta  occ. eigenvalues --   -9.99967  -9.99858  -9.99856  -9.99856  -9.99838
  Beta  occ. eigenvalues --   -9.99811  -9.99804  -9.99762  -9.99632  -9.99480
  Beta  occ. eigenvalues --   -9.99464  -9.99438  -9.99428  -9.99410  -9.99382
  Beta  occ. eigenvalues --   -9.99376  -9.99299  -9.99193  -9.99131  -9.99113
  Beta  occ. eigenvalues --   -9.99087  -9.99064  -9.99057  -9.98992  -9.98937
  Beta  occ. eigenvalues --   -9.98930  -9.98924  -9.98898  -9.98893  -9.98889
  Beta  occ. eigenvalues --   -9.98882  -9.98878  -9.98853  -9.98851  -9.98851
  Beta  occ. eigenvalues --   -9.98848  -9.98833  -9.98812  -9.98807  -9.98803
  Beta  occ. eigenvalues --   -9.98800  -9.98793  -9.98787  -9.98762  -9.98746
  Beta  occ. eigenvalues --   -9.98739  -9.98736  -9.98732  -9.98715  -9.98714
  Beta  occ. eigenvalues --   -9.98692  -9.98675  -9.98649  -9.98592  -9.98540
  Beta  occ. eigenvalues --   -9.98531  -9.98309  -9.98265  -9.98215  -9.98170
  Beta  occ. eigenvalues --   -9.98113  -1.20057  -1.20036  -1.20013  -1.20012
  Beta  occ. eigenvalues --   -1.19978  -1.19906  -1.19661  -0.88733  -0.88628
  Beta  occ. eigenvalues --   -0.88489  -0.88314  -0.88103  -0.87848  -0.87661
  Beta  occ. eigenvalues --   -0.87111  -0.86765  -0.86387  -0.85989  -0.85599
  Beta  occ. eigenvalues --   -0.85271  -0.85003  -0.82074  -0.81613  -0.81004
  Beta  occ. eigenvalues --   -0.80298  -0.79522  -0.78699  -0.77915  -0.76879
  Beta  occ. eigenvalues --   -0.76712  -0.76648  -0.76583  -0.76534  -0.76387
  Beta  occ. eigenvalues --   -0.76276  -0.76225  -0.76029  -0.75874  -0.75753
  Beta  occ. eigenvalues --   -0.75742  -0.75658  -0.75612  -0.75526  -0.75245
  Beta  occ. eigenvalues --   -0.74835  -0.73874  -0.72923  -0.72057  -0.71426
  Beta  occ. eigenvalues --   -0.67889  -0.67175  -0.66323  -0.65643  -0.65485
  Beta  occ. eigenvalues --   -0.65330  -0.65103  -0.64912  -0.64642  -0.64181
  Beta  occ. eigenvalues --   -0.64126  -0.63905  -0.63439  -0.63044  -0.62706
  Beta  occ. eigenvalues --   -0.62594  -0.62165  -0.61808  -0.61596  -0.61461
  Beta  occ. eigenvalues --   -0.61192  -0.61165  -0.60947  -0.60759  -0.60473
  Beta  occ. eigenvalues --   -0.60262  -0.60139  -0.59981  -0.57147  -0.57046
  Beta  occ. eigenvalues --   -0.56928  -0.56781  -0.56584  -0.56352  -0.56248
  Beta  occ. eigenvalues --   -0.54523  -0.54291  -0.53923  -0.53601  -0.53415
  Beta  occ. eigenvalues --   -0.53315  -0.53288  -0.52822  -0.52712  -0.52404
  Beta  occ. eigenvalues --   -0.52049  -0.51717  -0.51462  -0.51251  -0.51186
  Beta  occ. eigenvalues --   -0.51052  -0.50889  -0.50550  -0.50123  -0.49795
  Beta  occ. eigenvalues --   -0.49599  -0.49206  -0.49055  -0.48925  -0.48714
  Beta  occ. eigenvalues --   -0.48643  -0.48478  -0.48470  -0.48302  -0.48177
  Beta  occ. eigenvalues --   -0.47952  -0.47865  -0.47787  -0.47607  -0.47531
  Beta  occ. eigenvalues --   -0.47307  -0.47209  -0.47151  -0.47040  -0.46976
  Beta  occ. eigenvalues --   -0.46743  -0.46606  -0.46544  -0.46524  -0.46436
  Beta  occ. eigenvalues --   -0.46364  -0.46252  -0.46124  -0.46011  -0.45484
  Beta  occ. eigenvalues --   -0.44933  -0.44919  -0.44881  -0.44877  -0.44806
  Beta  occ. eigenvalues --   -0.44678  -0.44626  -0.44373  -0.43903  -0.43180
  Beta  occ. eigenvalues --   -0.42771  -0.42725  -0.42639  -0.42586  -0.42516
  Beta  occ. eigenvalues --   -0.42404  -0.42043  -0.41954  -0.41921  -0.41631
  Beta  occ. eigenvalues --   -0.41441  -0.41376  -0.41300  -0.41177  -0.40997
  Beta  occ. eigenvalues --   -0.40882  -0.40776  -0.40589  -0.40482  -0.40340
  Beta  occ. eigenvalues --   -0.40091  -0.39971  -0.39707  -0.39626  -0.39520
  Beta  occ. eigenvalues --   -0.39454  -0.39346  -0.39292  -0.39140  -0.38996
  Beta  occ. eigenvalues --   -0.38834  -0.38439  -0.38207  -0.37824  -0.37632
  Beta  occ. eigenvalues --   -0.37608  -0.37400  -0.37235  -0.37191  -0.37007
  Beta  occ. eigenvalues --   -0.36701  -0.36662  -0.36516  -0.36363  -0.36186
  Beta  occ. eigenvalues --   -0.36124  -0.34714  -0.34377  -0.33902  -0.33302
  Beta  occ. eigenvalues --   -0.32603  -0.31839  -0.31092  -0.30510  -0.30508
  Beta  occ. eigenvalues --   -0.30490  -0.30466  -0.30421  -0.30311  -0.30244
  Beta  occ. eigenvalues --   -0.29938  -0.29856  -0.29844  -0.29826  -0.29809
  Beta  occ. eigenvalues --   -0.29762  -0.29560  -0.29236  -0.28691  -0.27898
  Beta  occ. eigenvalues --   -0.27056  -0.26274  -0.25639  -0.25237
  Beta virt. eigenvalues --   -0.03295  -0.02798  -0.02082  -0.01204  -0.00225
  Beta virt. eigenvalues --    0.00788   0.01630   0.01858   0.01944   0.01998
  Beta virt. eigenvalues --    0.02021   0.02092   0.02195   0.02356   0.02413

 Mulliken charges and spin densities:
               1          2
     1  C    0.024917   0.000000
     2  C    0.028994  -0.000000
     3  C    0.005552   0.000000
     4  C    0.022540  -0.000000
     5  C    0.019667   0.000000
     6  C    0.028985  -0.000000
     7  C   -0.015903   0.000000
     8  C    0.018413   0.000000
     9  C    0.014246  -0.000000
    10  C    0.036790   0.000000
    11  C    0.010463  -0.000000
    12  C    0.089106   0.000000
    13  F   -0.127345   0.000000
    14  C    0.030862  -0.000000
    15  C    0.009624  -0.000000
    16  C    0.029104   0.000000
    17  C    0.034794  -0.000000
    18  C    0.014671   0.000000
    19  C    0.010514  -0.000000
    20  C   -0.016446   0.000000
    21  C    0.016506   0.000000
    22  C    0.014685  -0.000000
    23  C    0.036933  -0.000000
    24  C    0.011852  -0.000000
    25  C    0.087930   0.000000
    26  F   -0.127082  -0.000000
    27  C    0.030548   0.000000
    28  C    0.010570  -0.000000
    29  C    0.029573   0.000000
    30  C    0.034766  -0.000000
    31  C    0.014898  -0.000000
    32  C    0.009638  -0.000000
    33  C   -0.016804  -0.000000
    34  C    0.016622   0.000000
    35  C    0.014639   0.000000
    36  C    0.037121   0.000000
    37  C    0.011872  -0.000000
    38  C    0.088130  -0.000000
    39  F   -0.126943   0.000000
    40  C    0.030641  -0.000000
    41  C    0.010448   0.000000
    42  C    0.029589  -0.000000
    43  C    0.034895  -0.000000
    44  C    0.014830  -0.000000
    45  C    0.009568   0.000000
    46  C   -0.016652   0.000000
    47  C    0.016563  -0.000000
    48  C    0.014564   0.000000
    49  C    0.037248   0.000000
    50  C    0.011919  -0.000000
    51  C    0.088004   0.000000
    52  F   -0.126940  -0.000000
    53  C    0.030758  -0.000000
    54  C    0.009512  -0.000000
    55  C    0.014727   0.000000
    56  C    0.034948  -0.000000
    57  C    0.029610  -0.000000
    58  C    0.010328   0.000000
    59  C   -0.016471   0.000000
    60  C    0.016553   0.000000
    61  C    0.014865  -0.000000
    62  C    0.037170   0.000000
    63  C    0.011773  -0.000000
    64  C    0.087795   0.000000
    65  F   -0.127079   0.000000
    66  C    0.030734   0.000000
    67  C    0.010377   0.000000
    68  C    0.014950  -0.000000
    69  C    0.034985  -0.000000
    70  C    0.029437   0.000000
    71  C    0.009516  -0.000000
    72  C   -0.016562   0.000000
    73  C    0.016653   0.000000
    74  C    0.014562   0.000000
    75  C    0.036269   0.000000
    76  C    0.011726  -0.000000
    77  C    0.087953   0.000000
    78  F   -0.127237  -0.000000
    79  C    0.033292   0.000000
    80  C    0.008885  -0.000000
    81  C    0.029752   0.000000
    82  C    0.037625  -0.000000
    83  C    0.014495   0.000000
    84  C    0.009608  -0.000000
    85  C   -0.023783   0.000000
    86  C    0.008811  -0.000000
    87  C    0.033797   0.000000
    88  C    0.033940  -0.000000
    89  C    0.024000   0.000000
    90  C    0.081952  -0.000000
    91  F   -0.127960  -0.000000
    92  H   -0.019511   0.000000
    93  H   -0.018488  -0.000000
    94  H   -0.026189   0.000000
    95  H   -0.025599   0.000000
    96  H   -0.017529  -0.000000
    97  H   -0.019253  -0.000000
    98  H   -0.026550  -0.000000
    99  H   -0.014451  -0.000000
   100  H   -0.024470  -0.000000
   101  H   -0.024710  -0.000000
   102  H   -0.024324   0.000000
   103  H   -0.024714  -0.000000
   104  H   -0.018707  -0.000000
   105  H   -0.025569  -0.000000
   106  H   -0.013885  -0.000000
   107  H   -0.023448   0.000000
   108  H   -0.023991   0.000000
   109  H   -0.024440  -0.000000
   110  H   -0.025470  -0.000000
   111  H   -0.018797  -0.000000
   112  H   -0.025489  -0.000000
   113  H   -0.013619  -0.000000
   114  H   -0.023442   0.000000
   115  H   -0.023845  -0.000000
   116  H   -0.024396  -0.000000
   117  H   -0.025423   0.000000
   118  H   -0.018768   0.000000
   119  H   -0.025538  -0.000000
   120  H   -0.013469   0.000000
   121  H   -0.025418   0.000000
   122  H   -0.024561   0.000000
   123  H   -0.023631  -0.000000
   124  H   -0.023412  -0.000000
   125  H   -0.018581  -0.000000
   126  H   -0.025507  -0.000000
   127  H   -0.013499  -0.000000
   128  H   -0.024595  -0.000000
   129  H   -0.023938   0.000000
   130  H   -0.024213   0.000000
   131  H   -0.024218  -0.000000
   132  H   -0.018555   0.000000
   133  H   -0.024569  -0.000000
   134  H   -0.014441   0.000000
   135  H   -0.024733   0.000000
   136  H   -0.024455   0.000000
   137  H   -0.023871  -0.000000
   138  H   -0.024346   0.000000
   139  H   -0.018478  -0.000000
   140  H   -0.016323   0.000000
   141  H   -0.011762  -0.000000
   142  H   -0.004756  -0.000000
 Sum of Mulliken charges =  -0.00000  -0.00000

 Dipole moment (field-independent basis, Debye):
    X=             -4.9159    Y=              1.4427    Z=             -0.2841  Tot=              5.1311
 Quadrupole moment (field-independent basis, Debye-Ang):
   XX=           -415.7324   YY=           -503.7788   ZZ=           -509.2967
   XY=             26.9240   XZ=            -38.5235   YZ=             -1.1981

 Normal termination of Gaussian 16 at Thu Jul 23 22:53:38 2020.
