 Gaussian 16, Revision A.03,
 Gaussian 16:  EM64L-G16RevA.03 25-Dec-2016

 ---------------------------------------------------------------
 #P uLC-wPBE/cc-pVDZ iop(3/107=0139700000, 3/108=0139700000) opt
 ---------------------------------------------------------------

 ----------------
 H10 C12 N1 O1 F1
 ----------------
 Symbolic Z-matrix:
 Charge =  0 Multiplicity = 1

 SCF Done:  E(ULC-wPBE) =  -692.433109346     A.U. after   15 cycles
 SCF Done:  E(ULC-wPBE) =  -692.468630263     A.U. after   13 cycles
 SCF Done:  E(ULC-wPBE) =  -692.478381511     A.U. after   14 cycles
 SCF Done:  E(ULC-wPBE) =  -692.478685820     A.U. after   13 cycles
 SCF Done:  E(ULC-wPBE) =  -692.477523063     A.U. after   13 cycles
 SCF Done:  E(ULC-wPBE) =  -692.478898180     A.U. after   12 cycles
 SCF Done:  E(ULC-wPBE) =  -692.478943894     A.U. after   12 cycles
 SCF Done:  E(ULC-wPBE) =  -692.478948230     A.U. after    9 cycles
 SCF Done:  E(ULC-wPBE) =  -692.478949450     A.U. after    9 cycles
 SCF Done:  E(ULC-wPBE) =  -692.478949679     A.U. after    7 cycles
 Optimization completed.
    -- Stationary point found.

                         Standard orientation:
 ---------------------------------------------------------------------
 Center     Atomic      Atomic             Coordinates (Angstroms)
 Number     Number       Type             X           Y           Z
 ---------------------------------------------------------------------
      1          6           0        3.696995   -0.184067   -0.243545
      2          6           0        2.988205    0.759855    0.507207
      3          6           0        1.605994    0.611854    0.603553
      4          9           0        0.914937    1.475056    1.382320
      5          6           0        0.939909   -0.439684   -0.059276
      6          7           0        1.644103   -1.361269   -0.751852
      7          6           0        2.977469   -1.230129   -0.835412
      8          6           0       -0.532426   -0.645286    0.030240
      9          6           0       -1.021253   -1.932835    0.303292
     10          6           0       -2.394324   -2.187169    0.405422
     11          6           0       -3.299003   -1.136557    0.216748
     12          6           0       -2.841373    0.152227   -0.092164
     13          6           0       -1.461220    0.402219   -0.200453
     14          8           0       -0.929429    1.607234   -0.563010
     15          6           0       -1.820999    2.699653   -0.744458
     16          1           0        4.787878   -0.116159   -0.353768
     17          1           0        3.479544    1.591310    1.030006
     18          1           0        3.499766   -2.009870   -1.413064
     19          1           0       -0.287093   -2.739015    0.436333
     20          1           0       -2.753622   -3.199540    0.633698
     21          1           0       -4.380708   -1.314721    0.298825
     22          1           0       -3.566868    0.956913   -0.261806
     23          1           0       -2.535454    2.516502   -1.576418
     24          1           0       -2.392777    2.922309    0.182367
     25          1           0       -1.186232    3.567294   -0.996921
 ---------------------------------------------------------------------

 The electronic state is 1-A.
 Alpha  occ. eigenvalues --  -24.36497 -18.87957 -14.07693 -10.06235 -10.03771
 Alpha  occ. eigenvalues --  -10.03349 -10.02210 -10.00957 -10.00015  -9.99440
 Alpha  occ. eigenvalues --   -9.98464  -9.98192  -9.97839  -9.97822  -9.97215
 Alpha  occ. eigenvalues --   -1.19931  -1.06028  -0.94280  -0.85473  -0.81278
 Alpha  occ. eigenvalues --   -0.79009  -0.75982  -0.74443  -0.70785  -0.66381
 Alpha  occ. eigenvalues --   -0.64949  -0.61479  -0.60678  -0.56788  -0.55303
 Alpha  occ. eigenvalues --   -0.53382  -0.52646  -0.50581  -0.49515  -0.49245
 Alpha  occ. eigenvalues --   -0.47854  -0.46920  -0.45873  -0.44353  -0.43815
 Alpha  occ. eigenvalues --   -0.42743  -0.42048  -0.40832  -0.40443  -0.38784
 Alpha  occ. eigenvalues --   -0.38215  -0.35669  -0.35102  -0.33297  -0.30812
 Alpha  occ. eigenvalues --   -0.28762  -0.28044  -0.25906
 Alpha virt. eigenvalues --   -0.00266   0.02046   0.04312   0.05253   0.10539
 Alpha virt. eigenvalues --    0.10988   0.12341   0.14533   0.15407   0.15804
 Alpha virt. eigenvalues --    0.16321   0.16978   0.17505   0.17816   0.18208

  Beta  occ. eigenvalues --  -24.36497 -18.87957 -14.07693 -10.06235 -10.03771
  Beta  occ. eigenvalues --  -10.03349 -10.02210 -10.00957 -10.00015  -9.99440
  Beta  occ. eigenvalues --   -9.98464  -9.98192  -9.97839  -9.97822  -9.97215
  Beta  occ. eigenvalues --   -1.19931  -1.06028  -0.94280  -0.85473  -0.81278
  Beta  occ. eigenvalues --   -0.79009  -0.75982  -0.74443  -0.70785  -0.66381
  Beta  occ. eigenvalues --   -0.64949  -0.61479  -0.60678  -0.56788  -0.55303
  Beta  occ. eigenvalues --   -0.53382  -0.52646  -0.50581  -0.49515  -0.49245
  Beta  occ. eigenvalues --   -0.47854  -0.46920  -0.45873  -0.44353  -0.43815
  Beta  occ. eigenvalues --   -0.42743  -0.42048  -0.40832  -0.40443  -0.38784
  Beta  occ. eigenvalues --   -0.38215  -0.35669  -0.35102  -0.33297  -0.30812
  Beta  occ. eigenvalues --   -0.28762  -0.28044  -0.25906
  Beta virt. eigenvalues --   -0.00266   0.02046   0.04312   0.05253   0.10539
  Beta virt. eigenvalues --    0.10988   0.12341   0.14533   0.15407   0.15804
  Beta virt. eigenvalues --    0.16321   0.16978   0.17505   0.17816   0.18208

 Mulliken charges and spin densities:
               1          2
     1  C   -0.017041  -0.000000
     2  C    0.060063   0.000000
     3  C    0.124043  -0.000000
     4  F   -0.119324   0.000000
     5  C    0.010287   0.000000
     6  N   -0.182081  -0.000000
     7  C    0.079607   0.000000
     8  C    0.004079  -0.000000
     9  C    0.049663   0.000000
    10  C    0.026682  -0.000000
    11  C    0.029772   0.000000
    12  C   -0.027235  -0.000000
    13  C    0.102236  -0.000000
    14  O   -0.234066   0.000000
    15  C    0.063781  -0.000000
    16  H   -0.010207  -0.000000
    17  H   -0.000125   0.000000
    18  H    0.000280   0.000000
    19  H   -0.032035   0.000000
    20  H   -0.023534  -0.000000
    21  H   -0.021075   0.000000
    22  H   -0.020721   0.000000
    23  H    0.043903   0.000000
    24  H    0.044412  -0.000000
    25  H    0.048636  -0.000000
 Sum of Mulliken charges =  -0.00000   0.00000

 Dipole moment (field-independent basis, Debye):
    X=              0.1117    Y=              1.8381    Z=              0.0634  Tot=              1.8426
 Quadrupole moment (field-independent basis, Debye-Ang):
   XX=            -69.1755   YY=            -78.8160   ZZ=            -88.9329
   XY=             -2.1178   XZ=              0.8782   YZ=             -2.8405

 Normal termination of Gaussian 16 at Sat Jul 25 09:05:12 2020.
