 Gaussian 16, Revision A.03,
 Gaussian 16:  EM64L-G16RevA.03 25-Dec-2016

 ---------------------------------------------------------------
 #P uLC-wPBE/cc-pVDZ iop(3/107=0133000000, 3/108=0133000000) opt
 ---------------------------------------------------------------

 -------------
 H20 C33 N3 F3
 -------------
 Symbolic Z-matrix:
 Charge =  0 Multiplicity = 1

 SCF Done:  E(ULC-wPBE) =  -1731.67985542     A.U. after   15 cycles
 SCF Done:  E(ULC-wPBE) =  -1731.74357776     A.U. after   13 cycles
 SCF Done:  E(ULC-wPBE) =  -1731.79126795     A.U. after   15 cycles
 SCF Done:  E(ULC-wPBE) =  -1731.79572530     A.U. after   13 cycles
 SCF Done:  E(ULC-wPBE) =  -1731.79808654     A.U. after   15 cycles
 SCF Done:  E(ULC-wPBE) =  -1731.79918477     A.U. after   15 cycles
 SCF Done:  E(ULC-wPBE) =  -1731.79985885     A.U. after   16 cycles
 SCF Done:  E(ULC-wPBE) =  -1731.80069276     A.U. after   16 cycles
 SCF Done:  E(ULC-wPBE) =  -1731.80120350     A.U. after   16 cycles
 SCF Done:  E(ULC-wPBE) =  -1731.80095265     A.U. after   16 cycles
 SCF Done:  E(ULC-wPBE) =  -1731.80195846     A.U. after   14 cycles
 SCF Done:  E(ULC-wPBE) =  -1731.80204618     A.U. after   14 cycles
 SCF Done:  E(ULC-wPBE) =  -1731.80204438     A.U. after   11 cycles
 SCF Done:  E(ULC-wPBE) =  -1731.80204400     A.U. after   13 cycles
 SCF Done:  E(ULC-wPBE) =  -1731.80204675     A.U. after   11 cycles
 SCF Done:  E(ULC-wPBE) =  -1731.80204594     A.U. after   11 cycles
 SCF Done:  E(ULC-wPBE) =  -1731.80204696     A.U. after   12 cycles
 SCF Done:  E(ULC-wPBE) =  -1731.80204731     A.U. after   10 cycles
 SCF Done:  E(ULC-wPBE) =  -1731.80204703     A.U. after    8 cycles
 SCF Done:  E(ULC-wPBE) =  -1731.80204712     A.U. after    7 cycles
 Optimization completed.
    -- Stationary point found.

                         Standard orientation:
 ---------------------------------------------------------------------
 Center     Atomic      Atomic             Coordinates (Angstroms)
 Number     Number       Type             X           Y           Z
 ---------------------------------------------------------------------
      1          6           0      -12.245586    0.020853   -0.340020
      2          6           0      -11.648315   -1.170312    0.084604
      3          6           0      -10.254820   -1.238368    0.189382
      4          6           0       -9.485881   -0.099888   -0.137303
      5          7           0      -10.066081    1.050556   -0.555687
      6          6           0      -11.401416    1.096568   -0.649160
      7          6           0       -7.993386   -0.061631   -0.075385
      8          6           0       -7.311927    1.048590   -0.624226
      9          6           0       -5.922506    1.157809   -0.605067
     10          6           0       -5.124888    0.149067   -0.022238
     11          6           0       -5.780802   -0.962688    0.537225
     12          6           0       -7.172474   -1.049186    0.502672
     13          9           0       -7.719645   -2.152950    1.087971
     14          6           0       -3.646148    0.249953    0.001921
     15          6           0       -2.976793    1.474490    0.178040
     16          6           0       -1.581121    1.515412    0.195650
     17          6           0       -0.852739    0.316376    0.038427
     18          7           0       -1.487516   -0.866067   -0.147057
     19          6           0       -2.823013   -0.884978   -0.164705
     20          6           0        0.637450    0.237713    0.041929
     21          6           0        1.262208   -0.982707   -0.303521
     22          6           0        2.647588   -1.134146   -0.322404
     23          6           0        3.498713   -0.058397    0.012005
     24          6           0        2.900213    1.164776    0.365095
     25          6           0        1.511392    1.291495    0.373881
     26          9           0        1.021924    2.508487    0.747049
     27          6           0        4.974357   -0.204943   -0.008038
     28          6           0        5.613890   -1.392399    0.395422
     29          6           0        7.006934   -1.472024    0.355389
     30          6           0        7.748393   -0.359509   -0.092307
     31          7           0        7.152526    0.788702   -0.485315
     32          6           0        5.815535    0.844038   -0.439570
     33          6           0        9.234739   -0.417006   -0.164833
     34          6           0        9.895266   -1.568858   -0.640167
     35          6           0       11.291105   -1.636345   -0.719752
     36          6           0       12.065040   -0.539587   -0.315351
     37          6           0       11.439267    0.615842    0.168276
     38          6           0       10.044715    0.663651    0.236449
     39          9           0        9.473960    1.779737    0.740547
     40          1           0      -13.335604    0.118713   -0.434097
     41          1           0      -12.260486   -2.048827    0.333804
     42          1           0       -9.768845   -2.162924    0.514958
     43          1           0      -11.823883    2.055470   -0.993190
     44          1           0       -7.936088    1.830573   -1.075142
     45          1           0       -5.443939    2.028583   -1.073974
     46          1           0       -5.227611   -1.767701    1.038374
     47          1           0       -3.550368    2.400957    0.324661
     48          1           0       -1.062095    2.467985    0.336658
     49          1           0       -3.283300   -1.871129   -0.344932
     50          1           0        0.597180   -1.815838   -0.564159
     51          1           0        3.080317   -2.096691   -0.628182
     52          1           0        3.498546    2.033573    0.668955
     53          1           0        5.022014   -2.239457    0.771030
     54          1           0        7.522542   -2.379304    0.698490
     55          1           0        5.367827    1.787615   -0.794896
     56          1           0        9.287277   -2.419917   -0.979135
     57          1           0       11.774378   -2.543737   -1.106492
     58          1           0       13.161582   -0.579817   -0.375012
     59          1           0       12.011957    1.490116    0.504663
 ---------------------------------------------------------------------

 The electronic state is 1-A.
 Alpha  occ. eigenvalues --  -24.37114 -24.37092 -24.35567 -14.07847 -14.07648
 Alpha  occ. eigenvalues --  -14.07373 -10.06560 -10.06536 -10.05751 -10.02750
 Alpha  occ. eigenvalues --  -10.02690 -10.02317 -10.01583 -10.01414 -10.01236
 Alpha  occ. eigenvalues --  -10.00482 -10.00419 -10.00165 -10.00048 -10.00013
 Alpha  occ. eigenvalues --  -10.00005  -9.99975  -9.99930  -9.99917  -9.99409
 Alpha  occ. eigenvalues --   -9.99226  -9.99117  -9.99090  -9.99017  -9.99000
 Alpha  occ. eigenvalues --   -9.98979  -9.98942  -9.98893  -9.98630  -9.98610
 Alpha  occ. eigenvalues --   -9.98594  -9.98580  -9.98488  -9.98323  -1.20282
 Alpha  occ. eigenvalues --   -1.20263  -1.19069  -0.94616  -0.94342  -0.94212
 Alpha  occ. eigenvalues --   -0.87634  -0.87283  -0.86385  -0.82887  -0.82145
 Alpha  occ. eigenvalues --   -0.80953  -0.80072  -0.79662  -0.78752  -0.76606
 Alpha  occ. eigenvalues --   -0.76051  -0.75966  -0.75527  -0.74646  -0.72933
 Alpha  occ. eigenvalues --   -0.68312  -0.66787  -0.66104  -0.65785  -0.65182
 Alpha  occ. eigenvalues --   -0.64233  -0.63398  -0.62586  -0.62450  -0.61779
 Alpha  occ. eigenvalues --   -0.61289  -0.60788  -0.57109  -0.56834  -0.56257
 Alpha  occ. eigenvalues --   -0.54664  -0.53977  -0.53702  -0.53242  -0.52516
 Alpha  occ. eigenvalues --   -0.51552  -0.51388  -0.50827  -0.50169  -0.49948
 Alpha  occ. eigenvalues --   -0.49564  -0.49312  -0.48688  -0.48646  -0.48562
 Alpha  occ. eigenvalues --   -0.47419  -0.47154  -0.47041  -0.46196  -0.45945
 Alpha  occ. eigenvalues --   -0.45775  -0.45708  -0.44548  -0.44279  -0.44188
 Alpha  occ. eigenvalues --   -0.43970  -0.43495  -0.43012  -0.42757  -0.41918
 Alpha  occ. eigenvalues --   -0.41714  -0.41541  -0.41000  -0.40591  -0.40281
 Alpha  occ. eigenvalues --   -0.40084  -0.39499  -0.39277  -0.39142  -0.38995
 Alpha  occ. eigenvalues --   -0.37595  -0.36940  -0.36871  -0.35949  -0.34396
 Alpha  occ. eigenvalues --   -0.33320  -0.32888  -0.32715  -0.32041  -0.30050
 Alpha  occ. eigenvalues --   -0.29788  -0.29618  -0.29101  -0.28889  -0.28733
 Alpha  occ. eigenvalues --   -0.28201  -0.27605  -0.25969
 Alpha virt. eigenvalues --   -0.04220  -0.02114  -0.00383   0.00344   0.00425
 Alpha virt. eigenvalues --    0.00677   0.02310   0.02343   0.02562   0.03361
 Alpha virt. eigenvalues --    0.05251   0.07254   0.10016   0.10253   0.10673

  Beta  occ. eigenvalues --  -24.37114 -24.37092 -24.35567 -14.07847 -14.07648
  Beta  occ. eigenvalues --  -14.07373 -10.06560 -10.06536 -10.05751 -10.02750
  Beta  occ. eigenvalues --  -10.02690 -10.02317 -10.01583 -10.01414 -10.01236
  Beta  occ. eigenvalues --  -10.00482 -10.00419 -10.00165 -10.00048 -10.00013
  Beta  occ. eigenvalues --  -10.00005  -9.99975  -9.99930  -9.99917  -9.99409
  Beta  occ. eigenvalues --   -9.99226  -9.99117  -9.99090  -9.99017  -9.99000
  Beta  occ. eigenvalues --   -9.98979  -9.98942  -9.98893  -9.98630  -9.98610
  Beta  occ. eigenvalues --   -9.98594  -9.98580  -9.98488  -9.98323  -1.20282
  Beta  occ. eigenvalues --   -1.20263  -1.19069  -0.94616  -0.94342  -0.94212
  Beta  occ. eigenvalues --   -0.87634  -0.87283  -0.86385  -0.82887  -0.82145
  Beta  occ. eigenvalues --   -0.80953  -0.80072  -0.79662  -0.78752  -0.76606
  Beta  occ. eigenvalues --   -0.76051  -0.75966  -0.75527  -0.74646  -0.72933
  Beta  occ. eigenvalues --   -0.68312  -0.66787  -0.66104  -0.65785  -0.65182
  Beta  occ. eigenvalues --   -0.64233  -0.63398  -0.62586  -0.62450  -0.61779
  Beta  occ. eigenvalues --   -0.61289  -0.60788  -0.57109  -0.56834  -0.56257
  Beta  occ. eigenvalues --   -0.54664  -0.53977  -0.53702  -0.53242  -0.52516
  Beta  occ. eigenvalues --   -0.51552  -0.51388  -0.50827  -0.50169  -0.49948
  Beta  occ. eigenvalues --   -0.49564  -0.49312  -0.48688  -0.48646  -0.48562
  Beta  occ. eigenvalues --   -0.47419  -0.47154  -0.47041  -0.46196  -0.45945
  Beta  occ. eigenvalues --   -0.45775  -0.45708  -0.44548  -0.44279  -0.44188
  Beta  occ. eigenvalues --   -0.43970  -0.43495  -0.43012  -0.42757  -0.41918
  Beta  occ. eigenvalues --   -0.41714  -0.41541  -0.41000  -0.40591  -0.40281
  Beta  occ. eigenvalues --   -0.40084  -0.39499  -0.39277  -0.39142  -0.38995
  Beta  occ. eigenvalues --   -0.37595  -0.36940  -0.36871  -0.35949  -0.34396
  Beta  occ. eigenvalues --   -0.33320  -0.32888  -0.32715  -0.32041  -0.30050
  Beta  occ. eigenvalues --   -0.29788  -0.29618  -0.29101  -0.28889  -0.28733
  Beta  occ. eigenvalues --   -0.28201  -0.27605  -0.25969
  Beta virt. eigenvalues --   -0.04220  -0.02114  -0.00383   0.00344   0.00425
  Beta virt. eigenvalues --    0.00677   0.02310   0.02343   0.02562   0.03361
  Beta virt. eigenvalues --    0.05251   0.07254   0.10016   0.10253   0.10673

 Mulliken charges and spin densities:
               1          2
     1  C   -0.023999  -0.000000
     2  C    0.079280   0.000000
     3  C   -0.004307  -0.000000
     4  C    0.092821   0.000000
     5  N   -0.199884  -0.000000
     6  C    0.093532  -0.000000
     7  C   -0.005349   0.000000
     8  C    0.059540   0.000000
     9  C    0.020694   0.000000
    10  C    0.038443  -0.000000
    11  C    0.014952  -0.000000
    12  C    0.051715  -0.000000
    13  F   -0.132121  -0.000000
    14  C   -0.032351   0.000000
    15  C    0.070748   0.000000
    16  C    0.008602  -0.000000
    17  C    0.097915   0.000000
    18  N   -0.199525  -0.000000
    19  C    0.092808   0.000000
    20  C   -0.005954  -0.000000
    21  C    0.059799  -0.000000
    22  C    0.021439  -0.000000
    23  C    0.037572  -0.000000
    24  C    0.016431   0.000000
    25  C    0.048706   0.000000
    26  F   -0.131421  -0.000000
    27  C   -0.031744   0.000000
    28  C    0.064883   0.000000
    29  C    0.023207  -0.000000
    30  C    0.062222   0.000000
    31  N   -0.176283   0.000000
    32  C    0.083935  -0.000000
    33  C   -0.019772  -0.000000
    34  C    0.016663   0.000000
    35  C    0.030649   0.000000
    36  C    0.035978  -0.000000
    37  C    0.016227   0.000000
    38  C    0.102625  -0.000000
    39  F   -0.110315   0.000000
    40  H   -0.012364  -0.000000
    41  H   -0.008328   0.000000
    42  H   -0.010904  -0.000000
    43  H   -0.000102   0.000000
    44  H   -0.019552  -0.000000
    45  H   -0.025422  -0.000000
    46  H   -0.012189  -0.000000
    47  H   -0.016765  -0.000000
    48  H   -0.011711  -0.000000
    49  H   -0.003938   0.000000
    50  H   -0.019676   0.000000
    51  H   -0.026465   0.000000
    52  H   -0.010092   0.000000
    53  H   -0.016760   0.000000
    54  H   -0.014996  -0.000000
    55  H   -0.001602   0.000000
    56  H   -0.022549  -0.000000
    57  H   -0.017447   0.000000
    58  H   -0.012097  -0.000000
    59  H   -0.005398   0.000000
 Sum of Mulliken charges =  -0.00000   0.00000

 Dipole moment (field-independent basis, Debye):
    X=             -1.6631    Y=             -2.1362    Z=              0.0554  Tot=              2.7078
 Quadrupole moment (field-independent basis, Debye-Ang):
   XX=           -163.7889   YY=           -208.3232   ZZ=           -225.9270
   XY=            -13.5292   XZ=              2.0121   YZ=             -0.4727

 Normal termination of Gaussian 16 at Fri Jul 24 18:02:08 2020.
