 Gaussian 16, Revision A.03,
 Gaussian 16:  EM64L-G16RevA.03 25-Dec-2016

 ---------------------------------------------------------------
 #P uLC-wPBE/cc-pVDZ iop(3/107=0108100000, 3/108=0108100000) opt
 ---------------------------------------------------------------

 ----------------
 H11 C11 S1 N1 O2
 ----------------
 Symbolic Z-matrix:
 Charge =  0 Multiplicity = 1

 SCF Done:  E(ULC-wPBE) =  -1028.37964244     A.U. after   15 cycles
 SCF Done:  E(ULC-wPBE) =  -1028.40638582     A.U. after   14 cycles
 SCF Done:  E(ULC-wPBE) =  -1028.41377259     A.U. after   14 cycles
 SCF Done:  E(ULC-wPBE) =  -1028.41450929     A.U. after   13 cycles
 SCF Done:  E(ULC-wPBE) =  -1028.41491378     A.U. after   13 cycles
 SCF Done:  E(ULC-wPBE) =  -1028.41523371     A.U. after   13 cycles
 SCF Done:  E(ULC-wPBE) =  -1028.41549143     A.U. after   13 cycles
 SCF Done:  E(ULC-wPBE) =  -1028.41588153     A.U. after   14 cycles
 SCF Done:  E(ULC-wPBE) =  -1028.41619430     A.U. after   12 cycles
 SCF Done:  E(ULC-wPBE) =  -1028.41646566     A.U. after   13 cycles
 SCF Done:  E(ULC-wPBE) =  -1028.41647619     A.U. after   13 cycles
 SCF Done:  E(ULC-wPBE) =  -1028.41652033     A.U. after   12 cycles
 SCF Done:  E(ULC-wPBE) =  -1028.41653022     A.U. after   11 cycles
 SCF Done:  E(ULC-wPBE) =  -1028.41653493     A.U. after   10 cycles
 SCF Done:  E(ULC-wPBE) =  -1028.41653649     A.U. after    8 cycles
 SCF Done:  E(ULC-wPBE) =  -1028.41653830     A.U. after    9 cycles
 SCF Done:  E(ULC-wPBE) =  -1028.41653877     A.U. after    9 cycles
 SCF Done:  E(ULC-wPBE) =  -1028.41653892     A.U. after    8 cycles
 SCF Done:  E(ULC-wPBE) =  -1028.41653901     A.U. after    7 cycles
 Optimization completed.
    -- Stationary point found.

                         Standard orientation:
 ---------------------------------------------------------------------
 Center     Atomic      Atomic             Coordinates (Angstroms)
 Number     Number       Type             X           Y           Z
 ---------------------------------------------------------------------
      1          6           0        3.254448    0.283287   -0.135639
      2          6           0        2.491017    1.437971   -0.312095
      3          6           0        1.086747    1.368452   -0.279074
      4          8           0        0.368769    2.504842   -0.564773
      5          6           0        0.238014    3.428279    0.523831
      6          6           0        0.420633    0.134190   -0.048313
      7          6           0        1.229508   -1.033401    0.088751
      8          8           0        0.545086   -2.206679    0.253116
      9          6           0        1.291902   -3.410963    0.397662
     10          6           0        2.631309   -0.957263    0.060706
     11          6           0       -1.050559    0.078946    0.039982
     12          7           0       -1.799249    1.075962    0.477104
     13          6           0       -3.135023    0.780589    0.388578
     14          6           0       -3.449396   -0.456735   -0.128758
     15         16           0       -1.999521   -1.322357   -0.503240
     16          1           0        4.351909    0.337305   -0.167906
     17          1           0        2.959134    2.411104   -0.511945
     18          1           0       -0.217662    4.342108    0.098880
     19          1           0       -0.433063    3.007732    1.301124
     20          1           0        1.228065    3.683452    0.962793
     21          1           0        1.921363   -3.613464   -0.495913
     22          1           0        1.938303   -3.384870    1.301549
     23          1           0        0.542467   -4.214779    0.507737
     24          1           0        3.240310   -1.860765    0.180663
     25          1           0       -3.869989    1.521132    0.730049
     26          1           0       -4.436202   -0.908405   -0.275431
 ---------------------------------------------------------------------

 The electronic state is 1-A.
 Alpha  occ. eigenvalues --  -88.15779 -18.87216 -18.83426 -14.05196 -10.02779
 Alpha  occ. eigenvalues --  -10.02260 -10.01745 -10.01577  -9.99309  -9.98247
 Alpha  occ. eigenvalues --   -9.98162  -9.97722  -9.97003  -9.96385  -9.95663
 Alpha  occ. eigenvalues --   -7.76023  -5.78072  -5.77646  -5.77331  -1.05055
 Alpha  occ. eigenvalues --   -1.01654  -0.93075  -0.83779  -0.77876  -0.77021
 Alpha  occ. eigenvalues --   -0.74411  -0.71598  -0.69452  -0.67291  -0.62242
 Alpha  occ. eigenvalues --   -0.59357  -0.58062  -0.55624  -0.53563  -0.50796
 Alpha  occ. eigenvalues --   -0.50215  -0.48783  -0.48362  -0.47751  -0.45783
 Alpha  occ. eigenvalues --   -0.44994  -0.43581  -0.42451  -0.42359  -0.41537
 Alpha  occ. eigenvalues --   -0.40275  -0.39258  -0.38607  -0.37333  -0.35435
 Alpha  occ. eigenvalues --   -0.34736  -0.33487  -0.30460  -0.29376  -0.28236
 Alpha  occ. eigenvalues --   -0.27138  -0.25505  -0.24297
 Alpha virt. eigenvalues --   -0.01635   0.02882   0.03864   0.06567   0.08008
 Alpha virt. eigenvalues --    0.08948   0.10770   0.11522   0.11788   0.13549
 Alpha virt. eigenvalues --    0.13753   0.14650   0.15564   0.15676   0.16159

  Beta  occ. eigenvalues --  -88.15779 -18.87216 -18.83426 -14.05196 -10.02779
  Beta  occ. eigenvalues --  -10.02260 -10.01745 -10.01577  -9.99309  -9.98247
  Beta  occ. eigenvalues --   -9.98162  -9.97722  -9.97003  -9.96385  -9.95663
  Beta  occ. eigenvalues --   -7.76023  -5.78072  -5.77646  -5.77331  -1.05055
  Beta  occ. eigenvalues --   -1.01654  -0.93075  -0.83779  -0.77876  -0.77021
  Beta  occ. eigenvalues --   -0.74411  -0.71598  -0.69452  -0.67291  -0.62242
  Beta  occ. eigenvalues --   -0.59357  -0.58062  -0.55624  -0.53563  -0.50796
  Beta  occ. eigenvalues --   -0.50215  -0.48783  -0.48362  -0.47751  -0.45783
  Beta  occ. eigenvalues --   -0.44994  -0.43581  -0.42451  -0.42359  -0.41537
  Beta  occ. eigenvalues --   -0.40275  -0.39258  -0.38607  -0.37333  -0.35435
  Beta  occ. eigenvalues --   -0.34736  -0.33487  -0.30460  -0.29376  -0.28236
  Beta  occ. eigenvalues --   -0.27138  -0.25505  -0.24297
  Beta virt. eigenvalues --   -0.01635   0.02882   0.03864   0.06567   0.08008
  Beta virt. eigenvalues --    0.08948   0.10770   0.11522   0.11788   0.13549
  Beta virt. eigenvalues --    0.13753   0.14650   0.15564   0.15676   0.16159

 Mulliken charges and spin densities:
               1          2
     1  C    0.041148  -0.000000
     2  C    0.055396   0.000000
     3  C    0.015946  -0.000000
     4  O   -0.242216  -0.000000
     5  C    0.080156   0.000000
     6  C    0.054701  -0.000000
     7  C    0.087841   0.000000
     8  O   -0.244715  -0.000000
     9  C    0.065893   0.000000
    10  C   -0.017678   0.000000
    11  C   -0.013905   0.000000
    12  N   -0.174197  -0.000000
    13  C    0.124496   0.000000
    14  C   -0.167363  -0.000000
    15  S    0.152035   0.000000
    16  H   -0.019059   0.000000
    17  H   -0.025968   0.000000
    18  H    0.039355   0.000000
    19  H    0.034100  -0.000000
    20  H    0.017961  -0.000000
    21  H    0.047366  -0.000000
    22  H    0.047567  -0.000000
    23  H    0.052153  -0.000000
    24  H   -0.023710   0.000000
    25  H   -0.005766   0.000000
    26  H    0.018466  -0.000000
 Sum of Mulliken charges =  -0.00000   0.00000

 Dipole moment (field-independent basis, Debye):
    X=              1.0809    Y=             -2.0521    Z=              0.7792  Tot=              2.4468
 Quadrupole moment (field-independent basis, Debye-Ang):
   XX=            -80.9489   YY=            -80.9844   ZZ=            -97.9108
   XY=             -2.2722   XZ=              0.6100   YZ=              1.5263

 Normal termination of Gaussian 16 at Thu Jul 23 10:33:54 2020.
