 Gaussian 16, Revision A.03,
 Gaussian 16:  EM64L-G16RevA.03 25-Dec-2016

 ---------------------------------------------------------------
 #P uLC-wPBE/cc-pVDZ iop(3/107=0127600000, 3/108=0127600000) opt
 ---------------------------------------------------------------

 -------------
 H14 C30 S3 F6
 -------------
 Symbolic Z-matrix:
 Charge =  0 Multiplicity = 1

 SCF Done:  E(ULC-wPBE) =  -2943.23731028     A.U. after   16 cycles
 SCF Done:  E(ULC-wPBE) =  -2943.28829475     A.U. after   14 cycles
 SCF Done:  E(ULC-wPBE) =  -2943.31268482     A.U. after   15 cycles
 SCF Done:  E(ULC-wPBE) =  -2943.31535251     A.U. after   13 cycles
 SCF Done:  E(ULC-wPBE) =  -2943.31731406     A.U. after   13 cycles
 SCF Done:  E(ULC-wPBE) =  -2943.31837745     A.U. after   13 cycles
 SCF Done:  E(ULC-wPBE) =  -2943.31930491     A.U. after   12 cycles
 SCF Done:  E(ULC-wPBE) =  -2943.31967917     A.U. after   13 cycles
 SCF Done:  E(ULC-wPBE) =  -2943.31983484     A.U. after   12 cycles
 SCF Done:  E(ULC-wPBE) =  -2943.31991115     A.U. after   12 cycles
 SCF Done:  E(ULC-wPBE) =  -2943.31997256     A.U. after    9 cycles
 SCF Done:  E(ULC-wPBE) =  -2943.31997254     A.U. after   10 cycles
 SCF Done:  E(ULC-wPBE) =  -2943.31997277     A.U. after    8 cycles
 SCF Done:  E(ULC-wPBE) =  -2943.31997302     A.U. after    8 cycles
 SCF Done:  E(ULC-wPBE) =  -2943.31997292     A.U. after    8 cycles
 SCF Done:  E(ULC-wPBE) =  -2943.31997300     A.U. after    7 cycles
 SCF Done:  E(ULC-wPBE) =  -2943.31997292     A.U. after    8 cycles
 SCF Done:  E(ULC-wPBE) =  -2943.31997284     A.U. after    8 cycles
 SCF Done:  E(ULC-wPBE) =  -2943.31997291     A.U. after    8 cycles
 SCF Done:  E(ULC-wPBE) =  -2943.31997287     A.U. after    7 cycles
 Optimization completed.
    -- Stationary point found.

                         Standard orientation:
 ---------------------------------------------------------------------
 Center     Atomic      Atomic             Coordinates (Angstroms)
 Number     Number       Type             X           Y           Z
 ---------------------------------------------------------------------
      1          6           0      -11.499548    0.233151    0.345194
      2          6           0      -11.079657   -1.081144    0.111778
      3          6           0       -9.720169   -1.345942   -0.046021
      4          9           0       -9.367184   -2.638755   -0.263648
      5          6           0       -8.708003   -0.355241    0.012088
      6          6           0       -9.203987    0.948144    0.255482
      7          9           0       -8.312630    1.970537    0.339727
      8          6           0      -10.552162    1.259903    0.419193
      9          6           0       -7.281714   -0.660931   -0.165994
     10          6           0       -6.695126   -1.855425   -0.580480
     11          6           0       -5.279708   -1.811997   -0.623633
     12          6           0       -4.749996   -0.587732   -0.241671
     13         16           0       -6.028171    0.526060    0.175196
     14          6           0       -3.340770   -0.184728   -0.171082
     15          6           0       -2.952671    1.170542   -0.184691
     16          6           0       -1.607529    1.516976   -0.118620
     17          9           0       -1.320651    2.843678   -0.145593
     18          6           0       -0.543885    0.583479   -0.040603
     19          6           0       -0.990055   -0.760492   -0.036806
     20          9           0       -0.057563   -1.746599    0.036409
     21          6           0       -2.321084   -1.155289   -0.092590
     22          6           0        0.867462    0.976469    0.031418
     23          6           0        1.407512    2.254790    0.167620
     24          6           0        2.823723    2.277536    0.186470
     25          6           0        3.401626    1.021903    0.064065
     26         16           0        2.167870   -0.205435   -0.077914
     27          6           0        4.826305    0.669885    0.049727
     28          6           0        5.274766   -0.632704    0.346360
     29          6           0        6.634667   -0.921883    0.324888
     30          9           0        6.997220   -2.197838    0.619731
     31          6           0        7.654977    0.012833    0.028652
     32          6           0        7.149790    1.304499   -0.263933
     33          9           0        8.020429    2.296560   -0.585049
     34          6           0        5.800503    1.640149   -0.263201
     35          6           0        9.086678   -0.312599    0.022558
     36          6           0       10.172109    0.551881   -0.103781
     37          6           0       11.432960   -0.106053   -0.085220
     38          6           0       11.316715   -1.472868    0.049791
     39         16           0        9.666803   -1.971677    0.166976
     40          1           0      -12.566904    0.456891    0.471508
     41          1           0      -11.784898   -1.919273    0.050201
     42          1           0      -10.830783    2.304953    0.602353
     43          1           0       -7.277990   -2.737138   -0.857250
     44          1           0       -4.663182   -2.655903   -0.956025
     45          1           0       -3.687232    1.982033   -0.267021
     46          1           0       -2.542667   -2.228372   -0.051932
     47          1           0        0.790641    3.151498    0.262540
     48          1           0        3.407631    3.196812    0.315924
     49          1           0        4.580378   -1.438714    0.616305
     50          1           0        5.527840    2.666896   -0.535375
     51          1           0       10.058036    1.634088   -0.203076
     52          1           0       12.393747    0.416169   -0.168733
     53          1           0       12.112384   -2.224007    0.096531
 ---------------------------------------------------------------------

 The electronic state is 1-A.
 Alpha  occ. eigenvalues --  -88.18221 -88.17871 -88.17140 -24.37950 -24.37762
 Alpha  occ. eigenvalues --  -24.37734 -24.37546 -24.37155 -24.37023 -10.07452
 Alpha  occ. eigenvalues --  -10.07395 -10.07277 -10.07220 -10.06733 -10.06662
 Alpha  occ. eigenvalues --  -10.02473 -10.02160 -10.01927 -10.01667 -10.01588
 Alpha  occ. eigenvalues --  -10.01569 -10.01319 -10.01255 -10.01070 -10.01040
 Alpha  occ. eigenvalues --  -10.00257  -9.99670  -9.99513  -9.99489  -9.99295
 Alpha  occ. eigenvalues --   -9.99264  -9.98813  -9.98809  -9.98736  -9.98635
 Alpha  occ. eigenvalues --   -9.98381  -9.98305  -9.97577  -9.97520  -7.78476
 Alpha  occ. eigenvalues --   -7.78125  -7.77391  -5.80561  -5.80211  -5.80095
 Alpha  occ. eigenvalues --   -5.79745  -5.79708  -5.79468  -5.79355  -5.78997
 Alpha  occ. eigenvalues --   -5.78645  -1.21230  -1.21079  -1.21020  -1.20872
 Alpha  occ. eigenvalues --   -1.20454  -1.20328  -0.90070  -0.89570  -0.88489
 Alpha  occ. eigenvalues --   -0.88065  -0.87268  -0.86526  -0.81612  -0.80139
 Alpha  occ. eigenvalues --   -0.78868  -0.76907  -0.76826  -0.76414  -0.75283
 Alpha  occ. eigenvalues --   -0.74849  -0.74686  -0.73924  -0.72888  -0.70777
 Alpha  occ. eigenvalues --   -0.67352  -0.65563  -0.65383  -0.64910  -0.64530
 Alpha  occ. eigenvalues --   -0.63977  -0.60456  -0.60064  -0.59530  -0.59088
 Alpha  occ. eigenvalues --   -0.58522  -0.57716  -0.57339  -0.56041  -0.55503
 Alpha  occ. eigenvalues --   -0.54448  -0.53990  -0.53486  -0.53325  -0.52990
 Alpha  occ. eigenvalues --   -0.52484  -0.51812  -0.51757  -0.51235  -0.50817
 Alpha  occ. eigenvalues --   -0.50160  -0.49986  -0.49626  -0.49413  -0.48289
 Alpha  occ. eigenvalues --   -0.48133  -0.47998  -0.47512  -0.46452  -0.45945
 Alpha  occ. eigenvalues --   -0.45439  -0.45119  -0.44319  -0.43645  -0.43353
 Alpha  occ. eigenvalues --   -0.43316  -0.43133  -0.42721  -0.42568  -0.42064
 Alpha  occ. eigenvalues --   -0.41868  -0.41803  -0.41464  -0.40963  -0.40592
 Alpha  occ. eigenvalues --   -0.40389  -0.40113  -0.39859  -0.39543  -0.39031
 Alpha  occ. eigenvalues --   -0.38575  -0.38518  -0.38366  -0.36842  -0.36465
 Alpha  occ. eigenvalues --   -0.36069  -0.35373  -0.33734  -0.32012  -0.30209
 Alpha  occ. eigenvalues --   -0.29851  -0.29777  -0.29529  -0.29095  -0.28897
 Alpha  occ. eigenvalues --   -0.27963  -0.25688  -0.23577
 Alpha virt. eigenvalues --   -0.05050  -0.02720  -0.00185   0.01445   0.01570
 Alpha virt. eigenvalues --    0.02020   0.02406   0.04577   0.05658   0.06164
 Alpha virt. eigenvalues --    0.06665   0.07374   0.08213   0.08244   0.08938

  Beta  occ. eigenvalues --  -88.18221 -88.17871 -88.17140 -24.37950 -24.37762
  Beta  occ. eigenvalues --  -24.37734 -24.37546 -24.37155 -24.37023 -10.07452
  Beta  occ. eigenvalues --  -10.07395 -10.07277 -10.07220 -10.06733 -10.06662
  Beta  occ. eigenvalues --  -10.02473 -10.02160 -10.01927 -10.01667 -10.01588
  Beta  occ. eigenvalues --  -10.01569 -10.01319 -10.01255 -10.01070 -10.01040
  Beta  occ. eigenvalues --  -10.00257  -9.99670  -9.99513  -9.99489  -9.99295
  Beta  occ. eigenvalues --   -9.99264  -9.98813  -9.98809  -9.98736  -9.98635
  Beta  occ. eigenvalues --   -9.98381  -9.98305  -9.97577  -9.97520  -7.78476
  Beta  occ. eigenvalues --   -7.78125  -7.77391  -5.80561  -5.80211  -5.80095
  Beta  occ. eigenvalues --   -5.79745  -5.79708  -5.79468  -5.79355  -5.78997
  Beta  occ. eigenvalues --   -5.78645  -1.21230  -1.21079  -1.21020  -1.20872
  Beta  occ. eigenvalues --   -1.20454  -1.20328  -0.90070  -0.89570  -0.88489
  Beta  occ. eigenvalues --   -0.88065  -0.87268  -0.86526  -0.81612  -0.80139
  Beta  occ. eigenvalues --   -0.78868  -0.76907  -0.76826  -0.76414  -0.75283
  Beta  occ. eigenvalues --   -0.74849  -0.74686  -0.73924  -0.72888  -0.70777
  Beta  occ. eigenvalues --   -0.67352  -0.65563  -0.65383  -0.64910  -0.64530
  Beta  occ. eigenvalues --   -0.63977  -0.60456  -0.60064  -0.59530  -0.59088
  Beta  occ. eigenvalues --   -0.58522  -0.57716  -0.57339  -0.56041  -0.55503
  Beta  occ. eigenvalues --   -0.54448  -0.53990  -0.53486  -0.53325  -0.52990
  Beta  occ. eigenvalues --   -0.52484  -0.51812  -0.51757  -0.51235  -0.50817
  Beta  occ. eigenvalues --   -0.50160  -0.49986  -0.49626  -0.49413  -0.48289
  Beta  occ. eigenvalues --   -0.48133  -0.47998  -0.47512  -0.46452  -0.45945
  Beta  occ. eigenvalues --   -0.45439  -0.45119  -0.44319  -0.43645  -0.43353
  Beta  occ. eigenvalues --   -0.43316  -0.43133  -0.42721  -0.42568  -0.42064
  Beta  occ. eigenvalues --   -0.41868  -0.41803  -0.41464  -0.40963  -0.40592
  Beta  occ. eigenvalues --   -0.40389  -0.40113  -0.39859  -0.39543  -0.39031
  Beta  occ. eigenvalues --   -0.38575  -0.38518  -0.38366  -0.36842  -0.36465
  Beta  occ. eigenvalues --   -0.36069  -0.35373  -0.33734  -0.32012  -0.30209
  Beta  occ. eigenvalues --   -0.29851  -0.29777  -0.29529  -0.29095  -0.28897
  Beta  occ. eigenvalues --   -0.27963  -0.25688  -0.23577
  Beta virt. eigenvalues --   -0.05050  -0.02720  -0.00185   0.01445   0.01570
  Beta virt. eigenvalues --    0.02020   0.02406   0.04577   0.05658   0.06164
  Beta virt. eigenvalues --    0.06665   0.07374   0.08213   0.08244   0.08938

 Mulliken charges and spin densities:
               1          2
     1  C    0.044653  -0.000000
     2  C    0.035601   0.000000
     3  C    0.060305  -0.000000
     4  F   -0.123876   0.000000
     5  C    0.042171   0.000000
     6  C    0.067285   0.000000
     7  F   -0.121836  -0.000000
     8  C    0.038032  -0.000000
     9  C   -0.123091  -0.000000
    10  C    0.041066   0.000000
    11  C    0.043511  -0.000000
    12  C   -0.144239   0.000000
    13  S    0.151563   0.000000
    14  C    0.114213  -0.000000
    15  C    0.009870   0.000000
    16  C    0.063230  -0.000000
    17  F   -0.123094  -0.000000
    18  C    0.052250   0.000000
    19  C    0.073570  -0.000000
    20  F   -0.121661   0.000000
    21  C    0.009750  -0.000000
    22  C   -0.122500   0.000000
    23  C    0.035854   0.000000
    24  C    0.045002  -0.000000
    25  C   -0.143532  -0.000000
    26  S    0.149400  -0.000000
    27  C    0.112451   0.000000
    28  C    0.008975  -0.000000
    29  C    0.072853   0.000000
    30  F   -0.122165  -0.000000
    31  C    0.061472   0.000000
    32  C    0.067642  -0.000000
    33  F   -0.125284  -0.000000
    34  C    0.005586  -0.000000
    35  C   -0.135865  -0.000000
    36  C    0.006010   0.000000
    37  C    0.079247   0.000000
    38  C   -0.124837  -0.000000
    39  S    0.152586   0.000000
    40  H   -0.003959   0.000000
    41  H   -0.000172   0.000000
    42  H   -0.000263   0.000000
    43  H   -0.013558   0.000000
    44  H   -0.016569  -0.000000
    45  H   -0.003047   0.000000
    46  H   -0.013324  -0.000000
    47  H   -0.014651   0.000000
    48  H   -0.017842   0.000000
    49  H   -0.004334   0.000000
    50  H   -0.015033   0.000000
    51  H   -0.013219   0.000000
    52  H   -0.016132  -0.000000
    53  H    0.019932   0.000000
 Sum of Mulliken charges =  -0.00000  -0.00000

 Dipole moment (field-independent basis, Debye):
    X=             -4.0962    Y=              0.4211    Z=             -0.0121  Tot=              4.1178
 Quadrupole moment (field-independent basis, Debye-Ang):
   XX=           -179.6074   YY=           -227.2010   ZZ=           -245.1943
   XY=              3.2779   XZ=             -1.3807   YZ=              2.0898

 Normal termination of Gaussian 16 at Sat Jul 25 06:41:50 2020.
