 Gaussian 16, Revision A.03,
 Gaussian 16:  EM64L-G16RevA.03 25-Dec-2016

 ---------------------------------------------------------------
 #P uLC-wPBE/cc-pVDZ iop(3/107=0085300000, 3/108=0085300000) opt
 ---------------------------------------------------------------

 -------------
 H11 C13 O1 F1
 -------------
 Symbolic Z-matrix:
 Charge =  0 Multiplicity = 1

 SCF Done:  E(ULC-wPBE) =  -676.364293391     A.U. after   15 cycles
 SCF Done:  E(ULC-wPBE) =  -676.396253673     A.U. after   14 cycles
 SCF Done:  E(ULC-wPBE) =  -676.402493941     A.U. after   13 cycles
 SCF Done:  E(ULC-wPBE) =  -676.402951414     A.U. after   13 cycles
 SCF Done:  E(ULC-wPBE) =  -676.403056310     A.U. after   12 cycles
 SCF Done:  E(ULC-wPBE) =  -676.403074385     A.U. after   10 cycles
 SCF Done:  E(ULC-wPBE) =  -676.403076793     A.U. after    9 cycles
 SCF Done:  E(ULC-wPBE) =  -676.403077604     A.U. after    8 cycles
 SCF Done:  E(ULC-wPBE) =  -676.403077747     A.U. after    7 cycles
 SCF Done:  E(ULC-wPBE) =  -676.403077770     A.U. after    7 cycles
 Optimization completed.
    -- Stationary point found.

                         Standard orientation:
 ---------------------------------------------------------------------
 Center     Atomic      Atomic             Coordinates (Angstroms)
 Number     Number       Type             X           Y           Z
 ---------------------------------------------------------------------
      1          6           0        3.683124    0.560394   -0.197242
      2          6           0        3.222238   -0.581046    0.471514
      3          6           0        1.855996   -0.873668    0.456055
      4          9           0        1.441412   -1.988553    1.119167
      5          6           0        0.904280   -0.069188   -0.203692
      6          6           0        1.404350    1.076534   -0.863351
      7          6           0        2.769418    1.388557   -0.867154
      8          6           0       -0.539552   -0.431753   -0.219597
      9          6           0       -0.944500   -1.746659   -0.519874
     10          6           0       -2.296333   -2.116036   -0.557715
     11          6           0       -3.277404   -1.157178   -0.281961
     12          6           0       -2.910515    0.160857    0.029340
     13          6           0       -1.552461    0.529297    0.062172
     14          8           0       -1.118983    1.793878    0.367801
     15          6           0       -2.099574    2.766933    0.712209
     16          1           0        4.756166    0.799222   -0.193617
     17          1           0        3.900162   -1.254923    1.012567
     18          1           0        0.692309    1.728195   -1.385754
     19          1           0        3.121648    2.284224   -1.398003
     20          1           0       -0.169799   -2.494820   -0.734957
     21          1           0       -2.577356   -3.149660   -0.802477
     22          1           0       -4.343196   -1.427032   -0.305979
     23          1           0       -3.690544    0.900658    0.248476
     24          1           0       -1.537701    3.690035    0.942581
     25          1           0       -2.686298    2.462092    1.606656
     26          1           0       -2.800632    2.965694   -0.128613
 ---------------------------------------------------------------------

 The electronic state is 1-A.
 Alpha  occ. eigenvalues --  -24.32744 -18.85196 -10.02310 -10.00760 -10.00534
 Alpha  occ. eigenvalues --   -9.96278  -9.95881  -9.95516  -9.95236  -9.95227
 Alpha  occ. eigenvalues --   -9.95150  -9.94917  -9.94878  -9.94864  -9.94285
 Alpha  occ. eigenvalues --   -1.15856  -1.02940  -0.83507  -0.81620  -0.75568
 Alpha  occ. eigenvalues --   -0.72817  -0.71976  -0.70585  -0.67604  -0.61355
 Alpha  occ. eigenvalues --   -0.60087  -0.57983  -0.57231  -0.53301  -0.51972
 Alpha  occ. eigenvalues --   -0.48965  -0.48171  -0.46896  -0.46412  -0.46103
 Alpha  occ. eigenvalues --   -0.44723  -0.43636  -0.42898  -0.42098  -0.41171
 Alpha  occ. eigenvalues --   -0.38786  -0.38418  -0.37660  -0.36478  -0.36091
 Alpha  occ. eigenvalues --   -0.35289  -0.34538  -0.32704  -0.32268  -0.28899
 Alpha  occ. eigenvalues --   -0.26437  -0.25468  -0.23415
 Alpha virt. eigenvalues --   -0.01323   0.01375   0.02046   0.03219   0.07879
 Alpha virt. eigenvalues --    0.08252   0.09986   0.11869   0.12937   0.13112
 Alpha virt. eigenvalues --    0.14057   0.14525   0.14620   0.15003   0.15823

  Beta  occ. eigenvalues --  -24.32744 -18.85196 -10.02310 -10.00760 -10.00534
  Beta  occ. eigenvalues --   -9.96278  -9.95881  -9.95516  -9.95236  -9.95227
  Beta  occ. eigenvalues --   -9.95150  -9.94917  -9.94878  -9.94864  -9.94285
  Beta  occ. eigenvalues --   -1.15856  -1.02940  -0.83507  -0.81620  -0.75568
  Beta  occ. eigenvalues --   -0.72817  -0.71976  -0.70585  -0.67604  -0.61355
  Beta  occ. eigenvalues --   -0.60087  -0.57983  -0.57231  -0.53301  -0.51972
  Beta  occ. eigenvalues --   -0.48965  -0.48171  -0.46896  -0.46412  -0.46103
  Beta  occ. eigenvalues --   -0.44723  -0.43636  -0.42898  -0.42098  -0.41171
  Beta  occ. eigenvalues --   -0.38786  -0.38418  -0.37660  -0.36478  -0.36091
  Beta  occ. eigenvalues --   -0.35289  -0.34538  -0.32704  -0.32268  -0.28899
  Beta  occ. eigenvalues --   -0.26437  -0.25468  -0.23415
  Beta virt. eigenvalues --   -0.01323   0.01375   0.02046   0.03219   0.07879
  Beta virt. eigenvalues --    0.08252   0.09986   0.11869   0.12937   0.13112
  Beta virt. eigenvalues --    0.14057   0.14525   0.14620   0.15003   0.15823

 Mulliken charges and spin densities:
               1          2
     1  C    0.032887   0.000000
     2  C    0.019679  -0.000000
     3  C    0.082890   0.000000
     4  F   -0.129655   0.000000
     5  C   -0.015527  -0.000000
     6  C    0.042679   0.000000
     7  C    0.029607  -0.000000
     8  C   -0.003963  -0.000000
     9  C    0.035088   0.000000
    10  C    0.029859  -0.000000
    11  C    0.028602  -0.000000
    12  C   -0.021786  -0.000000
    13  C    0.089948   0.000000
    14  O   -0.235440  -0.000000
    15  C    0.063873  -0.000000
    16  H   -0.017833   0.000000
    17  H   -0.011026  -0.000000
    18  H   -0.029857   0.000000
    19  H   -0.023044  -0.000000
    20  H   -0.030127   0.000000
    21  H   -0.026053  -0.000000
    22  H   -0.023355  -0.000000
    23  H   -0.024007  -0.000000
    24  H    0.048807   0.000000
    25  H    0.044713   0.000000
    26  H    0.043043   0.000000
 Sum of Mulliken charges =  -0.00000   0.00000

 Dipole moment (field-independent basis, Debye):
    X=             -0.9266    Y=              1.8942    Z=             -0.1683  Tot=              2.1154
 Quadrupole moment (field-independent basis, Debye-Ang):
   XX=            -73.9883   YY=            -78.4904   ZZ=            -88.9641
   XY=             -2.7364   XZ=             -1.1979   YZ=              1.3202

 Normal termination of Gaussian 16 at Fri Jul 24 16:05:25 2020.
