 Gaussian 16, Revision A.03,
 Gaussian 16:  EM64L-G16RevA.03 25-Dec-2016

 ---------------------------------------------------------------
 #P uLC-wPBE/cc-pVDZ iop(3/107=0439700000, 3/108=0439700000) opt
 ---------------------------------------------------------------

 ----------------
 H51 C70 S7 N7 O7
 ----------------
 Symbolic Z-matrix:
 Charge =  0 Multiplicity = 1

 SCF Done:  E(ULC-wPBE) =  -6391.91961984     A.U. after   16 cycles
 SCF Done:  E(ULC-wPBE) =  -6392.02267624     A.U. after   14 cycles
 SCF Done:  E(ULC-wPBE) =  -6392.12958737     A.U. after   14 cycles
 SCF Done:  E(ULC-wPBE) =  -6392.16588567     A.U. after   15 cycles
 SCF Done:  E(ULC-wPBE) =  -6392.17752959     A.U. after   14 cycles
 SCF Done:  E(ULC-wPBE) =  -6392.18468174     A.U. after   15 cycles
 SCF Done:  E(ULC-wPBE) =  -6392.18540350     A.U. after   17 cycles
 SCF Done:  E(ULC-wPBE) =  -6392.19267864     A.U. after   14 cycles
 SCF Done:  E(ULC-wPBE) =  -6392.19523735     A.U. after   13 cycles
 SCF Done:  E(ULC-wPBE) =  -6392.19548014     A.U. after   15 cycles
 SCF Done:  E(ULC-wPBE) =  -6392.19799760     A.U. after   11 cycles
 SCF Done:  E(ULC-wPBE) =  -6392.19800219     A.U. after   11 cycles
 SCF Done:  E(ULC-wPBE) =  -6392.19800379     A.U. after   10 cycles
 SCF Done:  E(ULC-wPBE) =  -6392.19800439     A.U. after   10 cycles
 SCF Done:  E(ULC-wPBE) =  -6392.19800498     A.U. after   10 cycles
 SCF Done:  E(ULC-wPBE) =  -6392.19800498     A.U. after    7 cycles
 SCF Done:  E(ULC-wPBE) =  -6392.19800503     A.U. after    7 cycles
 SCF Done:  E(ULC-wPBE) =  -6392.19800505     A.U. after    6 cycles
 SCF Done:  E(ULC-wPBE) =  -6392.19800502     A.U. after    7 cycles
 SCF Done:  E(ULC-wPBE) =  -6392.19800501     A.U. after    6 cycles
 Optimization completed.
    -- Stationary point found.

                         Standard orientation:
 ---------------------------------------------------------------------
 Center     Atomic      Atomic             Coordinates (Angstroms)
 Number     Number       Type             X           Y           Z
 ---------------------------------------------------------------------
      1          6           0       26.555444    3.743413   -0.824010
      2          6           0       25.488764    4.382551   -0.207986
      3          6           0       24.299536    3.699544   -0.020501
      4          6           0       24.155216    2.374387   -0.430055
      5          6           0       25.233397    1.741898   -1.057382
      6          8           0       25.110265    0.477765   -1.545592
      7          6           0       25.642975   -0.532038   -0.709797
      8          6           0       26.424337    2.431557   -1.247400
      9          6           0       22.877626    1.669075   -0.220620
     10          7           0       22.754480    0.450319    0.202858
     11          6           0       21.439183    0.102380    0.306176
     12          6           0       20.527317    1.052611   -0.039053
     13         16           0       21.376599    2.465933   -0.532512
     14          6           0       19.060417    0.966583   -0.020801
     15          6           0       18.273194    2.077377    0.269921
     16          6           0       16.896526    1.959671    0.293994
     17          6           0       16.261528    0.749047    0.036904
     18          6           0       17.058620   -0.366405   -0.257206
     19          8           0       16.402220   -1.518238   -0.509721
     20          6           0       17.139440   -2.675905   -0.820258
     21          6           0       18.441843   -0.253062   -0.290441
     22          6           0       14.790374    0.713426    0.085740
     23          7           0       14.099442    1.781230    0.362870
     24          6           0       12.764492    1.523733    0.353538
     25          6           0       12.399178    0.243692    0.066844
     26         16           0       13.820270   -0.686199   -0.208362
     27          6           0       11.046086   -0.323162   -0.009888
     28          6           0        9.969164    0.473175   -0.400906
     29          6           0        8.694029   -0.055954   -0.447197
     30          6           0        8.445732   -1.391256   -0.131347
     31          6           0        9.524422   -2.190322    0.260050
     32          8           0        9.331708   -3.475554    0.659175
     33          6           0        9.603996   -4.450124   -0.330630
     34          6           0       10.802329   -1.653135    0.318567
     35          6           0        7.076892   -1.930774   -0.195593
     36          7           0        6.749603   -3.091244   -0.670387
     37          6           0        5.400353   -3.283054   -0.602923
     38          6           0        4.665491   -2.267464   -0.071868
     39         16           0        5.739264   -1.000139    0.381523
     40          6           0        3.210091   -2.194871    0.116556
     41          6           0        2.477263   -3.351774    0.369425
     42          6           0        1.106148   -3.278460    0.523024
     43          6           0        0.423685   -2.068559    0.443540
     44          6           0        1.166987   -0.905459    0.199128
     45          8           0        0.467496    0.246130    0.129301
     46          6           0        1.151120    1.453613   -0.105741
     47          6           0        2.544083   -0.973465    0.034730
     48          6           0       -1.037361   -2.082339    0.625436
     49          7           0       -1.677850   -3.193486    0.848963
     50          6           0       -3.013254   -2.976109    0.982948
     51          6           0       -3.429934   -1.685100    0.863406
     52         16           0       -2.058953   -0.689887    0.564504
     53          6           0       -4.794443   -1.150290    0.965112
     54          6           0       -5.037978    0.124311    1.470405
     55          6           0       -6.334111    0.594049    1.564256
     56          6           0       -7.422354   -0.176791    1.168136
     57          6           0       -7.172631   -1.459530    0.660173
     58          8           0       -8.255089   -2.171948    0.280234
     59          6           0       -8.077937   -3.474634   -0.220360
     60          6           0       -5.872402   -1.934112    0.555831
     61          6           0       -8.768898    0.402506    1.305256
     62          7           0       -8.942854    1.596767    1.792128
     63          6           0      -10.260814    1.929959    1.831436
     64          6           0      -11.133974    0.992385    1.370828
     65         16           0      -10.241309   -0.389266    0.864401
     66          6           0      -12.598088    1.075972    1.285610
     67          6           0      -13.316513    1.816006    2.221895
     68          6           0      -14.691463    1.905771    2.122174
     69          6           0      -15.396263    1.264336    1.107963
     70          6           0      -14.670174    0.513883    0.173168
     71          8           0      -15.390003   -0.091629   -0.795931
     72          6           0      -14.724583   -0.874331   -1.756649
     73          6           0      -13.287492    0.425933    0.263259
     74          6           0      -16.861125    1.409549    1.082505
     75          7           0      -17.485359    2.108898    1.985063
     76          6           0      -18.828790    2.108284    1.772528
     77          6           0      -19.268467    1.404327    0.693382
     78         16           0      -17.910169    0.699396   -0.094261
     79          6           0      -20.648015    1.232907    0.218171
     80          6           0      -21.706348    1.209054    1.123248
     81          6           0      -23.002335    1.067237    0.665418
     82          6           0      -23.291067    0.935224   -0.689200
     83          6           0      -22.222317    0.951548   -1.595637
     84          8           0      -22.543632    0.822767   -2.900830
     85          6           0      -21.519192    0.835009   -3.864306
     86          6           0      -20.918273    1.101792   -1.142974
     87          6           0      -24.701701    0.783281   -1.087236
     88          7           0      -25.653795    0.773356   -0.200654
     89          6           0      -26.875930    0.622553   -0.786225
     90          6           0      -26.868318    0.515137   -2.136999
     91         16           0      -25.262457    0.605489   -2.714278
     92          1           0       27.494671    4.272671   -0.983168
     93          1           0       25.582119    5.414561    0.127070
     94          1           0       23.462358    4.194673    0.472272
     95          1           0       25.060861   -0.605764    0.217895
     96          1           0       25.563084   -1.472183   -1.265007
     97          1           0       26.701949   -0.339925   -0.479129
     98          1           0       27.239162    1.919453   -1.757851
     99          1           0       21.181818   -0.886577    0.680442
    100          1           0       18.739026    3.035914    0.494765
    101          1           0       16.265332    2.816067    0.522807
    102          1           0       17.806356   -2.959770    0.006331
    103          1           0       17.728622   -2.541561   -1.738549
    104          1           0       16.404995   -3.470553   -0.978101
    105          1           0       19.056463   -1.110341   -0.551335
    106          1           0       12.069564    2.326299    0.592932
    107          1           0       10.135746    1.509383   -0.690130
    108          1           0        7.864740    0.575356   -0.766866
    109          1           0        9.500429   -5.425547    0.155157
    110          1           0        8.879269   -4.372726   -1.151206
    111          1           0       10.629343   -4.347363   -0.717377
    112          1           0       11.607749   -2.298370    0.668707
    113          1           0        4.976557   -4.206344   -0.992513
    114          1           0        2.984804   -4.309544    0.467412
    115          1           0        0.517094   -4.171360    0.723055
    116          1           0        1.661906    1.441837   -1.079151
    117          1           0        0.389249    2.238000   -0.109951
    118          1           0        1.880349    1.662278    0.689993
    119          1           0        3.112733   -0.071412   -0.178290
    120          1           0       -3.666616   -3.819006    1.200281
    121          1           0       -4.210594    0.746636    1.808642
    122          1           0       -6.542826    1.585825    1.960557
    123          1           0       -7.597622   -4.127383    0.522477
    124          1           0       -7.483831   -3.472224   -1.145419
    125          1           0       -9.079640   -3.855725   -0.437918
    126          1           0       -5.679451   -2.915396    0.130857
    127          1           0      -10.547975    2.913761    2.197323
    128          1           0      -12.798068    2.306135    3.043844
    129          1           0      -15.268938    2.477174    2.846297
    130          1           0      -14.187179   -1.711708   -1.289028
    131          1           0      -15.501117   -1.270535   -2.416990
    132          1           0      -14.020543   -0.271661   -2.348188
    133          1           0      -12.726742   -0.137726   -0.478487
    134          1           0      -19.471696    2.674961    2.443151
    135          1           0      -21.512021    1.281143    2.191769
    136          1           0      -23.841349    1.044507    1.358168
    137          1           0      -20.814071    0.005478   -3.710781
    138          1           0      -20.971098    1.788064   -3.855540
    139          1           0      -22.011684    0.713146   -4.833139
    140          1           0      -20.094948    1.138194   -1.852340
    141          1           0      -27.765335    0.597120   -0.160039
    142          1           0      -27.712722    0.389997   -2.807863
 ---------------------------------------------------------------------

 Alpha virt. eigenvalues --    0.20441   0.20582   0.20728   0.21004   0.21167
 Alpha virt. eigenvalues --    0.21407   0.21606   0.21762   0.21840   0.21913
 Alpha virt. eigenvalues --    0.21994   0.22126   0.22132   0.22229   0.22381

  Beta  occ. eigenvalues --  -88.35549 -88.35323 -88.35024 -88.35000 -88.34890
  Beta  occ. eigenvalues --  -88.34692 -88.34287 -19.05363 -19.05353 -19.05241
  Beta  occ. eigenvalues --  -19.05101 -19.04772 -19.01579 -19.01319 -14.24408
  Beta  occ. eigenvalues --  -14.24228 -14.23704 -14.23682 -14.23514 -14.23321
  Beta  occ. eigenvalues --  -14.22889 -10.22521 -10.22477 -10.22298 -10.22154
  Beta  occ. eigenvalues --  -10.22142 -10.21920 -10.21840 -10.21730 -10.21712
  Beta  occ. eigenvalues --  -10.21580 -10.21382 -10.21152 -10.21045 -10.21026
  Beta  occ. eigenvalues --  -10.21013 -10.20938 -10.20908 -10.20700 -10.20598
  Beta  occ. eigenvalues --  -10.18850 -10.18715 -10.18175 -10.18051 -10.18005
  Beta  occ. eigenvalues --  -10.17983 -10.17975 -10.17974 -10.17797 -10.17792
  Beta  occ. eigenvalues --  -10.17775 -10.17722 -10.17713 -10.17573 -10.17543
  Beta  occ. eigenvalues --  -10.17308 -10.17287 -10.17273 -10.17064 -10.16916
  Beta  occ. eigenvalues --  -10.16852 -10.16636 -10.16612 -10.16611 -10.16535
  Beta  occ. eigenvalues --  -10.16429 -10.16412 -10.16394 -10.16231 -10.15934
  Beta  occ. eigenvalues --  -10.15921 -10.15782 -10.15689 -10.15682 -10.15624
  Beta  occ. eigenvalues --  -10.15597 -10.15577 -10.15458 -10.15399 -10.15366
  Beta  occ. eigenvalues --  -10.15328 -10.15209 -10.15103 -10.15060 -10.15024
  Beta  occ. eigenvalues --  -10.15015 -10.14930 -10.14922 -10.14763 -10.14554
  Beta  occ. eigenvalues --  -10.14300  -7.96482  -7.96254  -7.95857  -7.95831
  Beta  occ. eigenvalues --   -7.95723  -7.95525  -7.95129  -5.97801  -5.97574
  Beta  occ. eigenvalues --   -5.97283  -5.97196  -5.97171  -5.97062  -5.97053
  Beta  occ. eigenvalues --   -5.96913  -5.96864  -5.96687  -5.96652  -5.96624
  Beta  occ. eigenvalues --   -5.96520  -5.96461  -5.96322  -5.96298  -5.96273
  Beta  occ. eigenvalues --   -5.96163  -5.95965  -5.95915  -5.95586  -1.25120
  Beta  occ. eigenvalues --   -1.25101  -1.24976  -1.24840  -1.24526  -1.21751
  Beta  occ. eigenvalues --   -1.21445  -1.14727  -1.14553  -1.14214  -1.14209
  Beta  occ. eigenvalues --   -1.14030  -1.13829  -1.13298  -1.05473  -1.05334
  Beta  occ. eigenvalues --   -1.05082  -1.04911  -1.04738  -1.04390  -1.03949
  Beta  occ. eigenvalues --   -0.99771  -0.99498  -0.99171  -0.98700  -0.98591
  Beta  occ. eigenvalues --   -0.98152  -0.96041  -0.96028  -0.95787  -0.95334
  Beta  occ. eigenvalues --   -0.95090  -0.94775  -0.94337  -0.93998  -0.93150
  Beta  occ. eigenvalues --   -0.93073  -0.92888  -0.92733  -0.92566  -0.92386
  Beta  occ. eigenvalues --   -0.91984  -0.91315  -0.90733  -0.89831  -0.89352
  Beta  occ. eigenvalues --   -0.88729  -0.88527  -0.88334  -0.87362  -0.87099
  Beta  occ. eigenvalues --   -0.86690  -0.86238  -0.85194  -0.84570  -0.84272
  Beta  occ. eigenvalues --   -0.81605  -0.80787  -0.80102  -0.79476  -0.78804
  Beta  occ. eigenvalues --   -0.78575  -0.78305  -0.76924  -0.76556  -0.76236
  Beta  occ. eigenvalues --   -0.75983  -0.75833  -0.75721  -0.75440  -0.73142
  Beta  occ. eigenvalues --   -0.73054  -0.72775  -0.72418  -0.72391  -0.72155
  Beta  occ. eigenvalues --   -0.72110  -0.71475  -0.71049  -0.70860  -0.70609
  Beta  occ. eigenvalues --   -0.70530  -0.70224  -0.70152  -0.68299  -0.68092
  Beta  occ. eigenvalues --   -0.67958  -0.67230  -0.66834  -0.66531  -0.66103
  Beta  occ. eigenvalues --   -0.65272  -0.64681  -0.64631  -0.64199  -0.64064
  Beta  occ. eigenvalues --   -0.63869  -0.63609  -0.63348  -0.63279  -0.63261
  Beta  occ. eigenvalues --   -0.63191  -0.63108  -0.62989  -0.62910  -0.62735
  Beta  occ. eigenvalues --   -0.62586  -0.62549  -0.62331  -0.62301  -0.61511
  Beta  occ. eigenvalues --   -0.61164  -0.60733  -0.60465  -0.60130  -0.59886
  Beta  occ. eigenvalues --   -0.59615  -0.59460  -0.59211  -0.58839  -0.58673
  Beta  occ. eigenvalues --   -0.58468  -0.58171  -0.58046  -0.57732  -0.57688
  Beta  occ. eigenvalues --   -0.57336  -0.57264  -0.57074  -0.57033  -0.56952
  Beta  occ. eigenvalues --   -0.56740  -0.56602  -0.56537  -0.56443  -0.56397
  Beta  occ. eigenvalues --   -0.56209  -0.56064  -0.55949  -0.55639  -0.55419
  Beta  occ. eigenvalues --   -0.55237  -0.54798  -0.54630  -0.54477  -0.54264
  Beta  occ. eigenvalues --   -0.54019  -0.53773  -0.53570  -0.53538  -0.53275
  Beta  occ. eigenvalues --   -0.52845  -0.52322  -0.52220  -0.52158  -0.51870
  Beta  occ. eigenvalues --   -0.51598  -0.51501  -0.51411  -0.51195  -0.50861
  Beta  occ. eigenvalues --   -0.50528  -0.50377  -0.50120  -0.50044  -0.50018
  Beta  occ. eigenvalues --   -0.49488  -0.49180  -0.48966  -0.48805  -0.48531
  Beta  occ. eigenvalues --   -0.48201  -0.48028  -0.47872  -0.47723  -0.47497
  Beta  occ. eigenvalues --   -0.47429  -0.47194  -0.47125  -0.47064  -0.46976
  Beta  occ. eigenvalues --   -0.46901  -0.46491  -0.45542  -0.45408  -0.45258
  Beta  occ. eigenvalues --   -0.45009  -0.44845  -0.43708  -0.43377  -0.42740
  Beta  occ. eigenvalues --   -0.41685  -0.40978  -0.40481  -0.40146  -0.40084
  Beta  occ. eigenvalues --   -0.39965  -0.39752  -0.39621  -0.39562  -0.39449
  Beta  occ. eigenvalues --   -0.39369  -0.39244  -0.39161  -0.39099  -0.39044
  Beta  occ. eigenvalues --   -0.38940  -0.38832  -0.38610  -0.38249  -0.37958
  Beta  occ. eigenvalues --   -0.36449  -0.36112  -0.35826  -0.35590  -0.35405
  Beta  occ. eigenvalues --   -0.35221  -0.34932  -0.34902  -0.33944  -0.33273
  Beta  occ. eigenvalues --   -0.31916  -0.30573  -0.29982  -0.29053
  Beta virt. eigenvalues --   -0.00781  -0.00106   0.00705   0.01995   0.03190
  Beta virt. eigenvalues --    0.04269   0.05172   0.06677   0.07190   0.07512
  Beta virt. eigenvalues --    0.07811   0.08039   0.08044   0.08221   0.08497

 Mulliken charges and spin densities:
               1          2
     1  C    0.013459  -0.000000
     2  C    0.001650   0.000000
     3  C    0.000716  -0.000000
     4  C   -0.013924   0.000000
     5  C    0.025419  -0.000000
     6  O   -0.265421   0.000000
     7  C    0.061658   0.000000
     8  C    0.027490  -0.000000
     9  C    0.005478  -0.000000
    10  N   -0.183096   0.000000
    11  C    0.119692  -0.000000
    12  C   -0.228207   0.000000
    13  S    0.172005  -0.000000
    14  C    0.033044  -0.000000
    15  C   -0.001368  -0.000000
    16  C    0.056778   0.000000
    17  C   -0.067811   0.000000
    18  C    0.121229  -0.000000
    19  O   -0.276672   0.000000
    20  C    0.042393   0.000000
    21  C   -0.050441   0.000000
    22  C    0.036823  -0.000000
    23  N   -0.201784   0.000000
    24  C    0.124801   0.000000
    25  C   -0.231632   0.000000
    26  S    0.177751   0.000000
    27  C    0.047683  -0.000000
    28  C   -0.012500   0.000000
    29  C    0.015839  -0.000000
    30  C   -0.009276   0.000000
    31  C    0.031397  -0.000000
    32  O   -0.264124   0.000000
    33  C    0.061577  -0.000000
    34  C    0.033502   0.000000
    35  C    0.004549  -0.000000
    36  N   -0.183580  -0.000000
    37  C    0.123604   0.000000
    38  C   -0.227849  -0.000000
    39  S    0.160219  -0.000000
    40  C    0.038749   0.000000
    41  C   -0.007439   0.000000
    42  C    0.058946  -0.000000
    43  C   -0.067544   0.000000
    44  C    0.117225  -0.000000
    45  O   -0.276164  -0.000000
    46  C    0.041230   0.000000
    47  C   -0.047085  -0.000000
    48  C    0.035084   0.000000
    49  N   -0.202067  -0.000000
    50  C    0.121496   0.000000
    51  C   -0.234361  -0.000000
    52  S    0.182742   0.000000
    53  C    0.036054   0.000000
    54  C   -0.004069  -0.000000
    55  C    0.057202  -0.000000
    56  C   -0.067858   0.000000
    57  C    0.119592  -0.000000
    58  O   -0.277244  -0.000000
    59  C    0.042993  -0.000000
    60  C   -0.051798   0.000000
    61  C    0.037217  -0.000000
    62  N   -0.201484  -0.000000
    63  C    0.125845   0.000000
    64  C   -0.235173   0.000000
    65  S    0.169308  -0.000000
    66  C    0.039565  -0.000000
    67  C   -0.007456  -0.000000
    68  C    0.058684   0.000000
    69  C   -0.067617  -0.000000
    70  C    0.116191  -0.000000
    71  O   -0.277010   0.000000
    72  C    0.042575   0.000000
    73  C   -0.049196   0.000000
    74  C    0.036507   0.000000
    75  N   -0.201441  -0.000000
    76  C    0.125538  -0.000000
    77  C   -0.234381  -0.000000
    78  S    0.168457   0.000000
    79  C    0.038442  -0.000000
    80  C   -0.008722   0.000000
    81  C    0.057687  -0.000000
    82  C   -0.062465  -0.000000
    83  C    0.119029   0.000000
    84  O   -0.276588  -0.000000
    85  C    0.042339  -0.000000
    86  C   -0.050319   0.000000
    87  C    0.018747   0.000000
    88  N   -0.207038   0.000000
    89  C    0.111776  -0.000000
    90  C   -0.206541   0.000000
    91  S    0.172283  -0.000000
    92  H    0.017367   0.000000
    93  H    0.013411   0.000000
    94  H    0.013353  -0.000000
    95  H    0.052423   0.000000
    96  H    0.053479   0.000000
    97  H    0.030780  -0.000000
    98  H    0.014315  -0.000000
    99  H    0.022902   0.000000
   100  H    0.009256   0.000000
   101  H    0.017636   0.000000
   102  H    0.057705  -0.000000
   103  H    0.061622   0.000000
   104  H    0.070775   0.000000
   105  H    0.011360  -0.000000
   106  H    0.023982   0.000000
   107  H    0.006465  -0.000000
   108  H    0.012685  -0.000000
   109  H    0.055659  -0.000000
   110  H    0.053328   0.000000
   111  H    0.030636   0.000000
   112  H    0.014131   0.000000
   113  H    0.027732   0.000000
   114  H    0.006149  -0.000000
   115  H    0.017139  -0.000000
   116  H    0.060145  -0.000000
   117  H    0.072045  -0.000000
   118  H    0.059792  -0.000000
   119  H    0.014085  -0.000000
   120  H    0.021021   0.000000
   121  H    0.009949   0.000000
   122  H    0.016935   0.000000
   123  H    0.058605  -0.000000
   124  H    0.059994   0.000000
   125  H    0.068601   0.000000
   126  H    0.009639  -0.000000
   127  H    0.025456  -0.000000
   128  H    0.004948   0.000000
   129  H    0.017192   0.000000
   130  H    0.058435   0.000000
   131  H    0.068203  -0.000000
   132  H    0.059796  -0.000000
   133  H    0.014384   0.000000
   134  H    0.025232  -0.000000
   135  H    0.004173   0.000000
   136  H    0.016760   0.000000
   137  H    0.056894   0.000000
   138  H    0.059876   0.000000
   139  H    0.069471   0.000000
   140  H    0.013879   0.000000
   141  H    0.021928  -0.000000
   142  H    0.046760   0.000000
 Sum of Mulliken charges =  -0.00000   0.00000

 Dipole moment (field-independent basis, Debye):
    X=              4.6761    Y=             -2.7759    Z=             -6.0526  Tot=              8.1367
 Quadrupole moment (field-independent basis, Debye-Ang):
   XX=           -545.5123   YY=           -530.6039   ZZ=           -563.7059
   XY=             24.0740   XZ=             80.7070   YZ=             11.5109

 Normal termination of Gaussian 16 at Fri Jul 24 13:42:02 2020.
