 Gaussian 16, Revision A.03,
 Gaussian 16:  EM64L-G16RevA.03 25-Dec-2016

 ---------------------------------------------------------------
 #P uLC-wPBE/cc-pVDZ iop(3/107=0272400000, 3/108=0272400000) opt
 ---------------------------------------------------------------

 --------------
 H7 C8 S2 N1 O1
 --------------
 Symbolic Z-matrix:
 Charge =  0 Multiplicity = 1

 SCF Done:  E(ULC-wPBE) =  -1234.78762624     A.U. after   16 cycles
 SCF Done:  E(ULC-wPBE) =  -1234.81273309     A.U. after   14 cycles
 SCF Done:  E(ULC-wPBE) =  -1234.81681886     A.U. after   14 cycles
 SCF Done:  E(ULC-wPBE) =  -1234.81780852     A.U. after   14 cycles
 SCF Done:  E(ULC-wPBE) =  -1234.81838465     A.U. after   14 cycles
 SCF Done:  E(ULC-wPBE) =  -1234.81868204     A.U. after   13 cycles
 SCF Done:  E(ULC-wPBE) =  -1234.81872317     A.U. after   12 cycles
 SCF Done:  E(ULC-wPBE) =  -1234.81873606     A.U. after   11 cycles
 SCF Done:  E(ULC-wPBE) =  -1234.81873798     A.U. after    9 cycles
 SCF Done:  E(ULC-wPBE) =  -1234.81873843     A.U. after    8 cycles
 Optimization completed.
    -- Stationary point found.

                         Standard orientation:
 ---------------------------------------------------------------------
 Center     Atomic      Atomic             Coordinates (Angstroms)
 Number     Number       Type             X           Y           Z
 ---------------------------------------------------------------------
      1          6           0       -3.349678    0.451551    0.000251
      2          6           0       -3.174372   -0.903782    0.001053
      3          7           0       -1.874984   -1.342481    0.000944
      4          6           0       -1.045257   -0.326125   -0.000095
      5         16           0       -1.816605    1.241782   -0.001021
      6          6           0        0.398574   -0.496017   -0.000466
      7          6           0        1.394526    0.465000   -0.000631
      8          8           0        1.059446    1.780351   -0.001409
      9          6           0        2.125526    2.716474    0.002068
     10          6           0        2.710598   -0.093087   -0.000442
     11          6           0        2.674448   -1.463904   -0.000102
     12         16           0        1.077519   -2.091775    0.000015
     13          1           0       -4.282873    1.017724    0.000414
     14          1           0       -3.984678   -1.639254    0.001958
     15          1           0        2.758222    2.612765   -0.900375
     16          1           0        2.754727    2.610004    0.906636
     17          1           0        1.657700    3.712575    0.002594
     18          1           0        3.637134    0.484971   -0.000466
     19          1           0        3.528281   -2.145000    0.000175
 ---------------------------------------------------------------------

 The electronic state is 1-A.
 Alpha  occ. eigenvalues --  -88.25243 -88.25025 -18.96133 -14.13962 -10.11932
 Alpha  occ. eigenvalues --  -10.11667 -10.11499 -10.08635 -10.08038 -10.07314
 Alpha  occ. eigenvalues --  -10.07258 -10.06353  -7.85698  -7.85528  -5.87601
 Alpha  occ. eigenvalues --   -5.87402  -5.87105  -5.86922  -5.86699  -5.86566
 Alpha  occ. eigenvalues --   -1.14935  -1.03634  -0.97111  -0.87818  -0.86037
 Alpha  occ. eigenvalues --   -0.83805  -0.80342  -0.77172  -0.69239  -0.67730
 Alpha  occ. eigenvalues --   -0.64344  -0.63534  -0.59819  -0.56682  -0.56421
 Alpha  occ. eigenvalues --   -0.54911  -0.52924  -0.51478  -0.50781  -0.48928
 Alpha  occ. eigenvalues --   -0.48031  -0.46377  -0.44591  -0.43307  -0.41984
 Alpha  occ. eigenvalues --   -0.41713  -0.37201  -0.35303  -0.34875  -0.32126
 Alpha  occ. eigenvalues --   -0.27973
 Alpha virt. eigenvalues --    0.01837   0.08529   0.11119   0.11739   0.13079
 Alpha virt. eigenvalues --    0.13745   0.15455   0.16704   0.17155   0.17461
 Alpha virt. eigenvalues --    0.19350   0.20174   0.20839   0.22047   0.22446

  Beta  occ. eigenvalues --  -88.25243 -88.25025 -18.96133 -14.13962 -10.11932
  Beta  occ. eigenvalues --  -10.11667 -10.11499 -10.08635 -10.08038 -10.07314
  Beta  occ. eigenvalues --  -10.07258 -10.06353  -7.85698  -7.85528  -5.87601
  Beta  occ. eigenvalues --   -5.87402  -5.87105  -5.86922  -5.86699  -5.86566
  Beta  occ. eigenvalues --   -1.14935  -1.03634  -0.97111  -0.87818  -0.86037
  Beta  occ. eigenvalues --   -0.83805  -0.80342  -0.77172  -0.69239  -0.67730
  Beta  occ. eigenvalues --   -0.64344  -0.63534  -0.59819  -0.56682  -0.56421
  Beta  occ. eigenvalues --   -0.54911  -0.52924  -0.51478  -0.50781  -0.48928
  Beta  occ. eigenvalues --   -0.48031  -0.46377  -0.44591  -0.43307  -0.41984
  Beta  occ. eigenvalues --   -0.41713  -0.37201  -0.35303  -0.34875  -0.32126
  Beta  occ. eigenvalues --   -0.27973
  Beta virt. eigenvalues --    0.01837   0.08529   0.11119   0.11739   0.13079
  Beta virt. eigenvalues --    0.13745   0.15455   0.16704   0.17155   0.17461
  Beta virt. eigenvalues --    0.19350   0.20174   0.20839   0.22047   0.22446

 Mulliken charges and spin densities:
               1          2
     1  C   -0.181276  -0.000000
     2  C    0.119875   0.000000
     3  N   -0.203899   0.000000
     4  C    0.030871  -0.000000
     5  S    0.162112   0.000000
     6  C   -0.182930   0.000000
     7  C    0.129718   0.000000
     8  O   -0.249865  -0.000000
     9  C    0.057008  -0.000000
    10  C    0.020360  -0.000000
    11  C   -0.127287   0.000000
    12  S    0.210787  -0.000000
    13  H    0.027599  -0.000000
    14  H    0.003714   0.000000
    15  H    0.048139   0.000000
    16  H    0.048144  -0.000000
    17  H    0.057967   0.000000
    18  H   -0.000440   0.000000
    19  H    0.029405   0.000000
 Sum of Mulliken charges =  -0.00000   0.00000

 Dipole moment (field-independent basis, Debye):
    X=              2.1462    Y=              2.3902    Z=              0.0037  Tot=              3.2124
 Quadrupole moment (field-independent basis, Debye-Ang):
   XX=            -65.5196   YY=            -77.1511   ZZ=            -86.4536
   XY=              0.7665   XZ=              0.0043   YZ=              0.0091

 Normal termination of Gaussian 16 at Thu Jul 23 18:21:20 2020.
