 Gaussian 16, Revision A.03,
 Gaussian 16:  EM64L-G16RevA.03 25-Dec-2016

 ---------------------------------------------------------------
 #P uLC-wPBE/cc-pVDZ iop(3/107=0320400000, 3/108=0320400000) opt
 ---------------------------------------------------------------

 ------------
 H5 C10 S1 F3
 ------------
 Symbolic Z-matrix:
 Charge =  0 Multiplicity = 1

 SCF Done:  E(ULC-wPBE) =  -1081.16763928     A.U. after   16 cycles
 SCF Done:  E(ULC-wPBE) =  -1081.19214864     A.U. after   14 cycles
 SCF Done:  E(ULC-wPBE) =  -1081.19542630     A.U. after   14 cycles
 SCF Done:  E(ULC-wPBE) =  -1081.19567486     A.U. after   13 cycles
 SCF Done:  E(ULC-wPBE) =  -1081.19573918     A.U. after   13 cycles
 SCF Done:  E(ULC-wPBE) =  -1081.19578710     A.U. after   11 cycles
 SCF Done:  E(ULC-wPBE) =  -1081.19580825     A.U. after   12 cycles
 SCF Done:  E(ULC-wPBE) =  -1081.19581066     A.U. after    9 cycles
 SCF Done:  E(ULC-wPBE) =  -1081.19581117     A.U. after    9 cycles
 Optimization completed.
    -- Stationary point found.

                         Standard orientation:
 ---------------------------------------------------------------------
 Center     Atomic      Atomic             Coordinates (Angstroms)
 Number     Number       Type             X           Y           Z
 ---------------------------------------------------------------------
      1          6           0        3.476195   -0.021755   -0.032309
      2          6           0        2.769762    1.114146   -0.415651
      3          6           0        1.383158    1.072890   -0.410757
      4          9           0        0.707488    2.163407   -0.801654
      5          6           0        0.655831   -0.058619   -0.026175
      6          6           0        1.415710   -1.172214    0.344440
      7          9           0        0.765493   -2.290099    0.711662
      8          6           0        2.801992   -1.178541    0.348368
      9          6           0       -0.814994   -0.060853   -0.014390
     10          6           0       -1.644685    0.883204    0.529779
     11          9           0       -1.192241    1.958337    1.186608
     12          6           0       -3.032999    0.633645    0.362765
     13          6           0       -3.238521   -0.527380   -0.324726
     14         16           0       -1.769667   -1.302655   -0.754834
     15          1           0        4.569727   -0.006490   -0.032759
     16          1           0        3.270477    2.033929   -0.726048
     17          1           0        3.327594   -2.086079    0.653493
     18          1           0       -3.816660    1.289793    0.743479
     19          1           0       -4.191817   -0.980603   -0.598431
 ---------------------------------------------------------------------

 The electronic state is 1-A.
 Alpha  occ. eigenvalues --  -88.28559 -24.47082 -24.46792 -24.46413 -10.17690
 Alpha  occ. eigenvalues --  -10.17637 -10.16389 -10.11922 -10.11764 -10.11433
 Alpha  occ. eigenvalues --  -10.10543 -10.09391 -10.09339 -10.09177  -7.89146
 Alpha  occ. eigenvalues --   -5.90937  -5.90425  -5.90004  -1.31533  -1.31404
 Alpha  occ. eigenvalues --   -1.30677  -1.01411  -0.98903  -0.90553  -0.86954
 Alpha  occ. eigenvalues --   -0.85326  -0.83506  -0.75103  -0.74130  -0.69545
 Alpha  occ. eigenvalues --   -0.68348  -0.66756  -0.64465  -0.63027  -0.59466
 Alpha  occ. eigenvalues --   -0.59162  -0.58771  -0.57080  -0.56551  -0.55718
 Alpha  occ. eigenvalues --   -0.54747  -0.54016  -0.51937  -0.49779  -0.48638
 Alpha  occ. eigenvalues --   -0.47714  -0.47143  -0.46609  -0.45907  -0.44610
 Alpha  occ. eigenvalues --   -0.38007  -0.34622  -0.34468  -0.31872
 Alpha virt. eigenvalues --    0.02908   0.06691   0.07379   0.11763   0.13932
 Alpha virt. eigenvalues --    0.14864   0.16185   0.18255   0.19651   0.20964
 Alpha virt. eigenvalues --    0.21676   0.21935   0.24733   0.26678   0.27380

  Beta  occ. eigenvalues --  -88.28559 -24.47082 -24.46792 -24.46413 -10.17690
  Beta  occ. eigenvalues --  -10.17637 -10.16389 -10.11922 -10.11764 -10.11433
  Beta  occ. eigenvalues --  -10.10543 -10.09391 -10.09339 -10.09177  -7.89146
  Beta  occ. eigenvalues --   -5.90937  -5.90425  -5.90004  -1.31533  -1.31404
  Beta  occ. eigenvalues --   -1.30677  -1.01411  -0.98903  -0.90553  -0.86954
  Beta  occ. eigenvalues --   -0.85326  -0.83506  -0.75103  -0.74130  -0.69545
  Beta  occ. eigenvalues --   -0.68348  -0.66756  -0.64465  -0.63027  -0.59466
  Beta  occ. eigenvalues --   -0.59162  -0.58771  -0.57080  -0.56551  -0.55718
  Beta  occ. eigenvalues --   -0.54747  -0.54016  -0.51937  -0.49779  -0.48638
  Beta  occ. eigenvalues --   -0.47714  -0.47143  -0.46609  -0.45907  -0.44610
  Beta  occ. eigenvalues --   -0.38007  -0.34622  -0.34468  -0.31872
  Beta virt. eigenvalues --    0.02908   0.06691   0.07379   0.11763   0.13932
  Beta virt. eigenvalues --    0.14864   0.16185   0.18255   0.19651   0.20964
  Beta virt. eigenvalues --    0.21676   0.21935   0.24733   0.26678   0.27380

 Mulliken charges and spin densities:
               1          2
     1  C    0.034536  -0.000000
     2  C   -0.002286   0.000000
     3  C    0.118556   0.000000
     4  F   -0.112989   0.000000
     5  C   -0.070314   0.000000
     6  C    0.119097  -0.000000
     7  F   -0.117067   0.000000
     8  C   -0.001602   0.000000
     9  C   -0.188474   0.000000
    10  C    0.137203  -0.000000
    11  F   -0.116308  -0.000000
    12  C    0.038739  -0.000000
    13  C   -0.128796   0.000000
    14  S    0.193253  -0.000000
    15  H    0.012256   0.000000
    16  H    0.014518   0.000000
    17  H    0.013959  -0.000000
    18  H    0.014821   0.000000
    19  H    0.040898   0.000000
 Sum of Mulliken charges =  -0.00000   0.00000

 Dipole moment (field-independent basis, Debye):
    X=              0.5199    Y=             -0.5089    Z=             -0.3674  Tot=              0.8150
 Quadrupole moment (field-independent basis, Debye-Ang):
   XX=            -64.2027   YY=            -85.3032   ZZ=            -86.4440
   XY=              0.7348   XZ=              0.4085   YZ=              0.4935

 Normal termination of Gaussian 16 at Fri Jul 24 15:16:39 2020.
