 Gaussian 16, Revision A.03,
 Gaussian 16:  EM64L-G16RevA.03 25-Dec-2016

 ---------------------------------------------------------------
 #P uLC-wPBE/cc-pVDZ iop(3/107=0340300000, 3/108=0340300000) opt
 ---------------------------------------------------------------

 -----------------
 H65 C84 S7 O14 F7
 -----------------
 Symbolic Z-matrix:
 Charge =  0 Multiplicity = 1

 SCF Done:  E(ULC-wPBE) =  -7774.74842860     A.U. after   17 cycles
 SCF Done:  E(ULC-wPBE) =  -7774.86923112     A.U. after   13 cycles
 SCF Done:  E(ULC-wPBE) =  -7775.01440396     A.U. after   16 cycles
 SCF Done:  E(ULC-wPBE) =  -7775.07344318     A.U. after   14 cycles
 SCF Done:  E(ULC-wPBE) =  -7775.08581105     A.U. after   13 cycles
 SCF Done:  E(ULC-wPBE) =  -7775.09380276     A.U. after   13 cycles
 SCF Done:  E(ULC-wPBE) =  -7775.09965910     A.U. after   13 cycles
 SCF Done:  E(ULC-wPBE) =  -7775.10362640     A.U. after   14 cycles
 SCF Done:  E(ULC-wPBE) =  -7775.10729638     A.U. after   14 cycles
 SCF Done:  E(ULC-wPBE) =  -7775.10864755     A.U. after   13 cycles
 SCF Done:  E(ULC-wPBE) =  -7775.11001574     A.U. after   10 cycles
 SCF Done:  E(ULC-wPBE) =  -7775.11001637     A.U. after   11 cycles
 SCF Done:  E(ULC-wPBE) =  -7775.11001629     A.U. after    7 cycles
 SCF Done:  E(ULC-wPBE) =  -7775.11001654     A.U. after    6 cycles
 SCF Done:  E(ULC-wPBE) =  -7775.11001654     A.U. after    6 cycles
 SCF Done:  E(ULC-wPBE) =  -7775.11001659     A.U. after    5 cycles
 SCF Done:  E(ULC-wPBE) =  -7775.11001667     A.U. after    6 cycles
 SCF Done:  E(ULC-wPBE) =  -7775.11001668     A.U. after    5 cycles
 SCF Done:  E(ULC-wPBE) =  -7775.11001668     A.U. after    5 cycles
 SCF Done:  E(ULC-wPBE) =  -7775.11001659     A.U. after    5 cycles
 Optimization completed on the basis of negligible forces.
    -- Stationary point found.

                         Standard orientation:
 ---------------------------------------------------------------------
 Center     Atomic      Atomic             Coordinates (Angstroms)
 Number     Number       Type             X           Y           Z
 ---------------------------------------------------------------------
      1          6           0       26.717775    2.987609   -0.552297
      2          6           0       26.476610    2.327691    0.642491
      3          6           0       25.340635    1.533831    0.734284
      4          9           0       25.095148    0.915578    1.899694
      5          6           0       24.442306    1.358945   -0.315260
      6          6           0       24.714692    2.050631   -1.514456
      7          8           0       23.810072    1.865141   -2.506441
      8          6           0       24.025336    2.523507   -3.735921
      9          6           0       25.845156    2.860175   -1.631777
     10          6           0       23.269865    0.481876   -0.158325
     11          6           0       23.271777   -0.827409    0.265712
     12          8           0       24.443160   -1.463679    0.506358
     13          6           0       24.362549   -2.750964    1.079144
     14          6           0       21.963817   -1.386020    0.378675
     15          6           0       20.981045   -0.494229    0.033292
     16         16           0       21.650825    1.024151   -0.426437
     17          6           0       19.525265   -0.725723    0.020213
     18          6           0       18.952744   -1.603766    0.938134
     19          6           0       17.582705   -1.813911    0.900128
     20          9           0       17.053047   -2.641901    1.813896
     21          6           0       16.732339   -1.195944   -0.012707
     22          6           0       17.331289   -0.298794   -0.922164
     23          8           0       16.479701    0.297253   -1.789681
     24          6           0       17.007765    1.219226   -2.719830
     25          6           0       18.705661   -0.071351   -0.908717
     26          6           0       15.288497   -1.478335   -0.011334
     27          6           0       14.690630   -2.718037   -0.046820
     28          8           0       15.446276   -3.835651   -0.172920
     29          6           0       14.774809   -5.072567   -0.078647
     30          6           0       13.267406   -2.660220    0.030665
     31          6           0       12.799258   -1.373596    0.116627
     32         16           0       14.091307   -0.237110    0.106218
     33          6           0       11.395189   -0.931060    0.196757
     34          6           0       10.986363    0.262106   -0.394316
     35          6           0        9.653808    0.634804   -0.299807
     36          9           0        9.279698    1.772645   -0.903552
     37          6           0        8.688309   -0.116562    0.364241
     38          6           0        9.123238   -1.325024    0.948476
     39          8           0        8.161250   -2.037134    1.583654
     40          6           0        8.528196   -3.248790    2.207136
     41          6           0       10.455509   -1.723864    0.869525
     42          6           0        7.295686    0.350309    0.448295
     43          6           0        6.866030    1.584769    0.880468
     44          8           0        7.755134    2.483459    1.365366
     45          6           0        7.263246    3.773966    1.656880
     46          6           0        5.453418    1.757179    0.780601
     47          6           0        4.823586    0.647562    0.278014
     48         16           0        5.952492   -0.603999   -0.074796
     49          6           0        3.378938    0.464002    0.047892
     50          6           0        2.585574    1.558697   -0.290481
     51          6           0        1.228962    1.359276   -0.494277
     52          9           0        0.479206    2.424590   -0.826892
     53          6           0        0.604360    0.121514   -0.388460
     54          6           0        1.423475   -0.972596   -0.037085
     55          8           0        0.785703   -2.156230    0.096023
     56          6           0        1.558793   -3.300361    0.386130
     57          6           0        2.790825   -0.801310    0.174223
     58          6           0       -0.837006   -0.044011   -0.638475
     59          6           0       -1.433002   -0.851993   -1.578821
     60          8           0       -0.674256   -1.597146   -2.418021
     61          6           0       -1.361817   -2.394884   -3.356945
     62          6           0       -2.858335   -0.790139   -1.550702
     63          6           0       -3.329494    0.065792   -0.588115
     64         16           0       -2.034508    0.802536    0.274948
     65          6           0       -4.735828    0.380308   -0.275865
     66          6           0       -5.697540    0.342944   -1.283798
     67          6           0       -7.012762    0.636216   -0.958744
     68          9           0       -7.926736    0.603541   -1.945160
     69          6           0       -7.436830    0.976142    0.321169
     70          6           0       -6.449286    0.999400    1.329383
     71          8           0       -6.892783    1.294319    2.570471
     72          6           0       -5.945241    1.386615    3.612409
     73          6           0       -5.118858    0.708206    1.031085
     74          6           0       -8.842197    1.303866    0.610685
     75          6           0       -9.333620    2.472038    1.145954
     76          8           0       -8.495672    3.497410    1.431140
     77          6           0       -9.074939    4.653260    1.996087
     78          6           0      -10.750047    2.459153    1.318290
     79          6           0      -11.319829    1.281351    0.906845
     80         16           0      -10.127420    0.186048    0.321246
     81          6           0      -12.749101    0.920053    0.925887
     82          6           0      -13.581513    1.424601    1.922536
     83          6           0      -14.926099    1.084893    1.907951
     84          9           0      -15.711533    1.605947    2.863251
     85          6           0      -15.497707    0.239468    0.961401
     86          6           0      -14.636300   -0.259469   -0.038500
     87          8           0      -15.223168   -1.061922   -0.956915
     88          6           0      -14.420151   -1.602674   -1.985380
     89          6           0      -13.285060    0.079621   -0.058589
     90          6           0      -16.926706   -0.107121    1.022779
     91          6           0      -17.605300   -0.616805    2.106521
     92          8           0      -16.941522   -0.905739    3.251293
     93          6           0      -17.719744   -1.325338    4.351110
     94          6           0      -19.000306   -0.795871    1.865689
     95          6           0      -19.366198   -0.421053    0.598484
     96         16           0      -18.008164    0.130568   -0.305193
     97          6           0      -20.713302   -0.471874    0.001058
     98          6           0      -21.614724   -1.457796    0.396179
     99          6           0      -22.879465   -1.476204   -0.172551
    100          9           0      -23.718498   -2.453387    0.204677
    101          6           0      -23.311007   -0.556602   -1.124218
    102          6           0      -22.377186    0.423951   -1.519866
    103          8           0      -22.819333    1.298492   -2.454086
    104          6           0      -21.933705    2.302386   -2.903285
    105          6           0      -21.100715    0.467832   -0.963018
    106          6           0      -24.675176   -0.621711   -1.673077
    107          6           0      -25.848582   -0.663663   -0.954868
    108          8           0      -25.824167   -0.572969    0.397462
    109          6           0      -27.051552   -0.753575    1.068726
    110          6           0      -27.010734   -0.784997   -1.779299
    111          6           0      -26.687522   -0.829225   -3.105146
    112         16           0      -25.002919   -0.717051   -3.368902
    113          1           0       27.603017    3.621539   -0.652197
    114          1           0       27.137906    2.415969    1.506195
    115          1           0       23.188083    2.234442   -4.384902
    116          1           0       24.972875    2.206820   -4.206661
    117          1           0       24.027939    3.621530   -3.616107
    118          1           0       26.057296    3.391144   -2.560218
    119          1           0       23.877260   -3.472964    0.397727
    120          1           0       23.818331   -2.735296    2.040281
    121          1           0       25.396898   -3.073408    1.259118
    122          1           0       21.750257   -2.415302    0.666614
    123          1           0       19.543636   -2.103409    1.707269
    124          1           0       16.151211    1.586114   -3.300430
    125          1           0       17.729119    0.738128   -3.403664
    126          1           0       17.496451    2.071372   -2.215430
    127          1           0       19.162794    0.597559   -1.638815
    128          1           0       15.548226   -5.849384   -0.147148
    129          1           0       14.054866   -5.212261   -0.905355
    130          1           0       14.245953   -5.176507    0.885805
    131          1           0       12.607046   -3.526019   -0.018123
    132          1           0       11.675790    0.897315   -0.953741
    133          1           0        9.273924   -3.086142    3.005187
    134          1           0        7.608304   -3.650907    2.651751
    135          1           0        8.927034   -3.977619    1.479245
    136          1           0       10.791431   -2.638054    1.358906
    137          1           0        6.807236    4.245718    0.768261
    138          1           0        8.130097    4.369582    1.972958
    139          1           0        6.524721    3.754599    2.478579
    140          1           0        4.912399    2.647771    1.100062
    141          1           0        3.003386    2.556450   -0.432396
    142          1           0        2.315920   -3.487706   -0.395558
    143          1           0        2.060997   -3.217428    1.366461
    144          1           0        0.854295   -4.142069    0.415338
    145          1           0        3.414471   -1.645592    0.470477
    146          1           0       -0.591653   -2.909833   -3.946954
    147          1           0       -1.999911   -3.149805   -2.863048
    148          1           0       -1.983017   -1.783931   -4.036485
    149          1           0       -3.518647   -1.371200   -2.194404
    150          1           0       -5.442432    0.125592   -2.322005
    151          1           0       -5.435673    0.422692    3.788713
    152          1           0       -5.189880    2.165245    3.406445
    153          1           0       -6.511140    1.661650    4.512210
    154          1           0       -4.364784    0.702903    1.819064
    155          1           0       -9.806816    5.120689    1.312869
    156          1           0       -9.568049    4.433751    2.960263
    157          1           0       -8.250709    5.358390    2.168911
    158          1           0      -11.338417    3.295813    1.694988
    159          1           0      -13.205706    2.064637    2.722228
    160          1           0      -13.978506   -0.811104   -2.616106
    161          1           0      -13.613003   -2.236924   -1.578733
    162          1           0      -15.090312   -2.219863   -2.597944
    163          1           0      -12.633147   -0.290899   -0.850554
    164          1           0      -18.462113   -0.560231    4.640616
    165          1           0      -18.240598   -2.277733    4.144387
    166          1           0      -17.019600   -1.476846    5.183591
    167          1           0      -19.716641   -1.161252    2.601372
    168          1           0      -21.345241   -2.235393    1.112520
    169          1           0      -21.632548    2.976084   -2.081803
    170          1           0      -21.030475    1.870130   -3.368943
    171          1           0      -22.487485    2.878319   -3.656310
    172          1           0      -20.398450    1.251332   -1.250287
    173          1           0      -26.827167   -0.697014    2.142460
    174          1           0      -27.496730   -1.739955    0.846370
    175          1           0      -27.778671    0.038894    0.814323
    176          1           0      -28.035648   -0.832218   -1.411597
    177          1           0      -27.371647   -0.910169   -3.949591
 ---------------------------------------------------------------------

 Alpha virt. eigenvalues --    0.74661   0.74814   0.75071   0.75102   0.75176
 Alpha virt. eigenvalues --    0.75287   0.75372   0.75433   0.75500   0.75568
 Alpha virt. eigenvalues --    0.75780   0.75844   0.75914   0.76019   0.76098

  Beta  occ. eigenvalues --  -88.28166 -88.28147 -88.28083 -88.28081 -88.28075
  Beta  occ. eigenvalues --  -88.27894 -88.27666 -24.46524 -24.46519 -24.46268
  Beta  occ. eigenvalues --  -24.46258 -24.46147 -24.46131 -24.45978 -18.98912
  Beta  occ. eigenvalues --  -18.98757 -18.98717 -18.98533 -18.98513 -18.98430
  Beta  occ. eigenvalues --  -18.98403 -18.97799 -18.97769 -18.97689 -18.97679
  Beta  occ. eigenvalues --  -18.97662 -18.97522 -18.97365 -10.17173 -10.17136
  Beta  occ. eigenvalues --  -10.17115 -10.17080 -10.16948 -10.16947 -10.16792
  Beta  occ. eigenvalues --  -10.15960 -10.15848 -10.15839 -10.15769 -10.15767
  Beta  occ. eigenvalues --  -10.15694 -10.15561 -10.14715 -10.14596 -10.14387
  Beta  occ. eigenvalues --  -10.14384 -10.14370 -10.14351 -10.14350 -10.14301
  Beta  occ. eigenvalues --  -10.14269 -10.14184 -10.14157 -10.14151 -10.14119
  Beta  occ. eigenvalues --  -10.14072 -10.14028 -10.13936 -10.13904 -10.13862
  Beta  occ. eigenvalues --  -10.13840 -10.13720 -10.13661 -10.12320 -10.12312
  Beta  occ. eigenvalues --  -10.12302 -10.12252 -10.12216 -10.12065 -10.11731
  Beta  occ. eigenvalues --  -10.11704 -10.11680 -10.11644 -10.11534 -10.11380
  Beta  occ. eigenvalues --  -10.11092 -10.10921 -10.10902 -10.10887 -10.10843
  Beta  occ. eigenvalues --  -10.10798 -10.10686 -10.10404 -10.10357 -10.10287
  Beta  occ. eigenvalues --  -10.10279 -10.10275 -10.10228 -10.10139 -10.10087
  Beta  occ. eigenvalues --  -10.09994 -10.09063 -10.09035 -10.09009 -10.09005
  Beta  occ. eigenvalues --  -10.08948 -10.08942 -10.08888 -10.08884 -10.08874
  Beta  occ. eigenvalues --  -10.08814 -10.08758 -10.08750 -10.08733 -10.08722
  Beta  occ. eigenvalues --  -10.08695 -10.08678 -10.08668 -10.08625 -10.08588
  Beta  occ. eigenvalues --  -10.08566 -10.08438  -7.88782  -7.88753  -7.88698
  Beta  occ. eigenvalues --   -7.88689  -7.88680  -7.88498  -7.88281  -5.90511
  Beta  occ. eigenvalues --   -5.90485  -5.90427  -5.90421  -5.90412  -5.90230
  Beta  occ. eigenvalues --   -5.90007  -5.90006  -5.89977  -5.89921  -5.89914
  Beta  occ. eigenvalues --   -5.89902  -5.89724  -5.89577  -5.89546  -5.89495
  Beta  occ. eigenvalues --   -5.89493  -5.89484  -5.89476  -5.89292  -5.89092
  Beta  occ. eigenvalues --   -1.31029  -1.31014  -1.30848  -1.30837  -1.30715
  Beta  occ. eigenvalues --   -1.30701  -1.30547  -1.18449  -1.18288  -1.18263
  Beta  occ. eigenvalues --   -1.18216  -1.18113  -1.18082  -1.17979  -1.17282
  Beta  occ. eigenvalues --   -1.17181  -1.17179  -1.17143  -1.17092  -1.17004
  Beta  occ. eigenvalues --   -1.16829  -1.01581  -1.01482  -1.01357  -1.01239
  Beta  occ. eigenvalues --   -1.01119  -1.01024  -1.00157  -0.99040  -0.98796
  Beta  occ. eigenvalues --   -0.98510  -0.98188  -0.97859  -0.97587  -0.97434
  Beta  occ. eigenvalues --   -0.92815  -0.92389  -0.91829  -0.91178  -0.90473
  Beta  occ. eigenvalues --   -0.89767  -0.89346  -0.87533  -0.87400  -0.87345
  Beta  occ. eigenvalues --   -0.87308  -0.87236  -0.87189  -0.87085  -0.86879
  Beta  occ. eigenvalues --   -0.86584  -0.86326  -0.86122  -0.85965  -0.85923
  Beta  occ. eigenvalues --   -0.85606  -0.85326  -0.85079  -0.84687  -0.84432
  Beta  occ. eigenvalues --   -0.84124  -0.83788  -0.83766  -0.82621  -0.82325
  Beta  occ. eigenvalues --   -0.82271  -0.82041  -0.81858  -0.81814  -0.81656
  Beta  occ. eigenvalues --   -0.80630  -0.80458  -0.80201  -0.79853  -0.79341
  Beta  occ. eigenvalues --   -0.78571  -0.77682  -0.76386  -0.75489  -0.74474
  Beta  occ. eigenvalues --   -0.73562  -0.72793  -0.72477  -0.72294  -0.72000
  Beta  occ. eigenvalues --   -0.71970  -0.71855  -0.71809  -0.71727  -0.71584
  Beta  occ. eigenvalues --   -0.71423  -0.68146  -0.68102  -0.68071  -0.68041
  Beta  occ. eigenvalues --   -0.68025  -0.67990  -0.67823  -0.67191  -0.66996
  Beta  occ. eigenvalues --   -0.66708  -0.66639  -0.66580  -0.66536  -0.65898
  Beta  occ. eigenvalues --   -0.65834  -0.65573  -0.65356  -0.64988  -0.64722
  Beta  occ. eigenvalues --   -0.64424  -0.64004  -0.63905  -0.62977  -0.62788
  Beta  occ. eigenvalues --   -0.62588  -0.62563  -0.62438  -0.62333  -0.62221
  Beta  occ. eigenvalues --   -0.62077  -0.61957  -0.61782  -0.61615  -0.61559
  Beta  occ. eigenvalues --   -0.61382  -0.59995  -0.59876  -0.59806  -0.59765
  Beta  occ. eigenvalues --   -0.59675  -0.59447  -0.59323  -0.59040  -0.58865
  Beta  occ. eigenvalues --   -0.58829  -0.58820  -0.58708  -0.58634  -0.58580
  Beta  occ. eigenvalues --   -0.58210  -0.58132  -0.57988  -0.57974  -0.57914
  Beta  occ. eigenvalues --   -0.57871  -0.57815  -0.57780  -0.57756  -0.57697
  Beta  occ. eigenvalues --   -0.57599  -0.57552  -0.57547  -0.57402  -0.56906
  Beta  occ. eigenvalues --   -0.56812  -0.56771  -0.56726  -0.56652  -0.56581
  Beta  occ. eigenvalues --   -0.56474  -0.55910  -0.55677  -0.55654  -0.55559
  Beta  occ. eigenvalues --   -0.55461  -0.55404  -0.55229  -0.54631  -0.54428
  Beta  occ. eigenvalues --   -0.54227  -0.54164  -0.54143  -0.53977  -0.53964
  Beta  occ. eigenvalues --   -0.53675  -0.53400  -0.53204  -0.52871  -0.52707
  Beta  occ. eigenvalues --   -0.52559  -0.52203  -0.51943  -0.51372  -0.51252
  Beta  occ. eigenvalues --   -0.51191  -0.51136  -0.51004  -0.50745  -0.50724
  Beta  occ. eigenvalues --   -0.50647  -0.50571  -0.50552  -0.50431  -0.50383
  Beta  occ. eigenvalues --   -0.50182  -0.49917  -0.49888  -0.49845  -0.49765
  Beta  occ. eigenvalues --   -0.49665  -0.49652  -0.49639  -0.49379  -0.49169
  Beta  occ. eigenvalues --   -0.48950  -0.48817  -0.48731  -0.48518  -0.48311
  Beta  occ. eigenvalues --   -0.48207  -0.48041  -0.47856  -0.47711  -0.47620
  Beta  occ. eigenvalues --   -0.47570  -0.47472  -0.47194  -0.46588  -0.46309
  Beta  occ. eigenvalues --   -0.46214  -0.46072  -0.45994  -0.45797  -0.45679
  Beta  occ. eigenvalues --   -0.44796  -0.44711  -0.44633  -0.44517  -0.44353
  Beta  occ. eigenvalues --   -0.44321  -0.44159  -0.44139  -0.44092  -0.44030
  Beta  occ. eigenvalues --   -0.43913  -0.43774  -0.43713  -0.43553  -0.43488
  Beta  occ. eigenvalues --   -0.43450  -0.43342  -0.43223  -0.43090  -0.43025
  Beta  occ. eigenvalues --   -0.42990  -0.42897  -0.42722  -0.42720  -0.42586
  Beta  occ. eigenvalues --   -0.42561  -0.42515  -0.42446  -0.41846  -0.41618
  Beta  occ. eigenvalues --   -0.41527  -0.41410  -0.41370  -0.41284  -0.41247
  Beta  occ. eigenvalues --   -0.37339  -0.37082  -0.36779  -0.36188  -0.35513
  Beta  occ. eigenvalues --   -0.34991  -0.34357  -0.33532  -0.33136  -0.32963
  Beta  occ. eigenvalues --   -0.32797  -0.32757  -0.32678  -0.32536  -0.32155
  Beta  occ. eigenvalues --   -0.31954  -0.31941  -0.31891  -0.31818  -0.31805
  Beta  occ. eigenvalues --   -0.31641  -0.30098  -0.29735  -0.29156  -0.28418
  Beta  occ. eigenvalues --   -0.27797  -0.27076  -0.26834
  Beta virt. eigenvalues --    0.01019   0.01534   0.02291   0.02951   0.03997
  Beta virt. eigenvalues --    0.04679   0.06754   0.07395   0.08307   0.08419
  Beta virt. eigenvalues --    0.08556   0.08605   0.08698   0.08779   0.08929

 Mulliken charges and spin densities:
               1          2
     1  C    0.027434   0.000000
     2  C   -0.011664  -0.000000
     3  C    0.124216   0.000000
     4  F   -0.119070   0.000000
     5  C   -0.064310   0.000000
     6  C    0.121922  -0.000000
     7  O   -0.237156   0.000000
     8  C    0.050752   0.000000
     9  C   -0.053945  -0.000000
    10  C   -0.188022   0.000000
    11  C    0.182679  -0.000000
    12  O   -0.241974   0.000000
    13  C    0.049722  -0.000000
    14  C   -0.016111  -0.000000
    15  C   -0.157811   0.000000
    16  S    0.184692  -0.000000
    17  C    0.063550  -0.000000
    18  C   -0.027470   0.000000
    19  C    0.133260  -0.000000
    20  F   -0.118767   0.000000
    21  C   -0.054213   0.000000
    22  C    0.129411  -0.000000
    23  O   -0.238192  -0.000000
    24  C    0.051421  -0.000000
    25  C   -0.055714   0.000000
    26  C   -0.192576  -0.000000
    27  C    0.179439   0.000000
    28  O   -0.241666   0.000000
    29  C    0.050608   0.000000
    30  C   -0.018147  -0.000000
    31  C   -0.156840   0.000000
    32  S    0.196211   0.000000
    33  C    0.054262   0.000000
    34  C   -0.019715  -0.000000
    35  C    0.130372   0.000000
    36  F   -0.116806   0.000000
    37  C   -0.054295  -0.000000
    38  C    0.132177   0.000000
    39  O   -0.238168  -0.000000
    40  C    0.053608  -0.000000
    41  C   -0.055297  -0.000000
    42  C   -0.191732   0.000000
    43  C    0.181504  -0.000000
    44  O   -0.241369   0.000000
    45  C    0.049451  -0.000000
    46  C   -0.015619   0.000000
    47  C   -0.157399  -0.000000
    48  S    0.184068   0.000000
    49  C    0.063821   0.000000
    50  C   -0.028808  -0.000000
    51  C    0.133830   0.000000
    52  F   -0.118973   0.000000
    53  C   -0.065862  -0.000000
    54  C    0.136713   0.000000
    55  O   -0.230230  -0.000000
    56  C    0.051648   0.000000
    57  C   -0.058465   0.000000
    58  C   -0.198006  -0.000000
    59  C    0.197047   0.000000
    60  O   -0.240365   0.000000
    61  C    0.048819   0.000000
    62  C   -0.019233  -0.000000
    63  C   -0.157699   0.000000
    64  S    0.182190  -0.000000
    65  C    0.064459   0.000000
    66  C   -0.029707  -0.000000
    67  C    0.133002   0.000000
    68  F   -0.120875  -0.000000
    69  C   -0.063530   0.000000
    70  C    0.136648  -0.000000
    71  O   -0.230161  -0.000000
    72  C    0.051189   0.000000
    73  C   -0.057927   0.000000
    74  C   -0.197752  -0.000000
    75  C    0.194145   0.000000
    76  O   -0.240313  -0.000000
    77  C    0.048646  -0.000000
    78  C   -0.017952  -0.000000
    79  C   -0.157298   0.000000
    80  S    0.184043   0.000000
    81  C    0.060200  -0.000000
    82  C   -0.027558  -0.000000
    83  C    0.134749   0.000000
    84  F   -0.118303  -0.000000
    85  C   -0.058507  -0.000000
    86  C    0.131051   0.000000
    87  O   -0.237844   0.000000
    88  C    0.050858   0.000000
    89  C   -0.055026  -0.000000
    90  C   -0.193436  -0.000000
    91  C    0.184031   0.000000
    92  O   -0.241463  -0.000000
    93  C    0.050190   0.000000
    94  C   -0.016800  -0.000000
    95  C   -0.156987   0.000000
    96  S    0.181580  -0.000000
    97  C    0.062143   0.000000
    98  C   -0.029266  -0.000000
    99  C    0.135109   0.000000
   100  F   -0.118975  -0.000000
   101  C   -0.049445  -0.000000
   102  C    0.129664   0.000000
   103  O   -0.237439   0.000000
   104  C    0.051580  -0.000000
   105  C   -0.055952   0.000000
   106  C   -0.201856   0.000000
   107  C    0.165340  -0.000000
   108  O   -0.241643  -0.000000
   109  C    0.048937  -0.000000
   110  C   -0.003581   0.000000
   111  C   -0.132919   0.000000
   112  S    0.181222  -0.000000
   113  H    0.003244  -0.000000
   114  H    0.005687   0.000000
   115  H    0.058610  -0.000000
   116  H    0.049643  -0.000000
   117  H    0.048363  -0.000000
   118  H   -0.001757   0.000000
   119  H    0.044675  -0.000000
   120  H    0.045687   0.000000
   121  H    0.056227   0.000000
   122  H    0.002865  -0.000000
   123  H   -0.003271  -0.000000
   124  H    0.060174  -0.000000
   125  H    0.051210   0.000000
   126  H    0.051206  -0.000000
   127  H   -0.000681  -0.000000
   128  H    0.056227  -0.000000
   129  H    0.044534  -0.000000
   130  H    0.042822  -0.000000
   131  H   -0.001247  -0.000000
   132  H    0.004992   0.000000
   133  H    0.053099   0.000000
   134  H    0.058228   0.000000
   135  H    0.045568  -0.000000
   136  H   -0.009369   0.000000
   137  H    0.045907   0.000000
   138  H    0.057451   0.000000
   139  H    0.044963   0.000000
   140  H    0.003276  -0.000000
   141  H   -0.002119  -0.000000
   142  H    0.050361  -0.000000
   143  H    0.049238   0.000000
   144  H    0.056650  -0.000000
   145  H   -0.000900  -0.000000
   146  H    0.054919   0.000000
   147  H    0.044744   0.000000
   148  H    0.045091  -0.000000
   149  H    0.003257  -0.000000
   150  H   -0.003096  -0.000000
   151  H    0.050581   0.000000
   152  H    0.051077   0.000000
   153  H    0.056738  -0.000000
   154  H    0.000788  -0.000000
   155  H    0.046530  -0.000000
   156  H    0.043246   0.000000
   157  H    0.055069   0.000000
   158  H    0.003207   0.000000
   159  H   -0.004636  -0.000000
   160  H    0.051810   0.000000
   161  H    0.051940   0.000000
   162  H    0.060693  -0.000000
   163  H    0.001448  -0.000000
   164  H    0.046779  -0.000000
   165  H    0.043374  -0.000000
   166  H    0.056250  -0.000000
   167  H    0.003179   0.000000
   168  H   -0.004141   0.000000
   169  H    0.052239   0.000000
   170  H    0.050423   0.000000
   171  H    0.059210   0.000000
   172  H    0.000396   0.000000
   173  H    0.055080  -0.000000
   174  H    0.045076   0.000000
   175  H    0.042909   0.000000
   176  H    0.003541  -0.000000
   177  H    0.031306  -0.000000
 Sum of Mulliken charges =  -0.00000  -0.00000

 Dipole moment (field-independent basis, Debye):
    X=              2.9261    Y=             -2.2180    Z=             -0.0675  Tot=              3.6723
 Quadrupole moment (field-independent basis, Debye-Ang):
   XX=           -581.0850   YY=           -611.4063   ZZ=           -632.0985
   XY=            -29.6500   XZ=            -71.1644   YZ=             -8.0478

 Normal termination of Gaussian 16 at Sat Jul 25 05:43:17 2020.
