 Gaussian 16, Revision A.03,
 Gaussian 16:  EM64L-G16RevA.03 25-Dec-2016

 ---------------------------------------------------------------
 #P uLC-wPBE/cc-pVDZ iop(3/107=0299000000, 3/108=0299000000) opt
 ---------------------------------------------------------------

 -------
 H26 C36
 -------
 Symbolic Z-matrix:
 Charge =  0 Multiplicity = 1

 SCF Done:  E(ULC-wPBE) =  -1386.35110866     A.U. after   16 cycles
 SCF Done:  E(ULC-wPBE) =  -1386.41753120     A.U. after   15 cycles
 SCF Done:  E(ULC-wPBE) =  -1386.46586457     A.U. after   17 cycles
 SCF Done:  E(ULC-wPBE) =  -1386.46863198     A.U. after   15 cycles
 SCF Done:  E(ULC-wPBE) =  -1386.46923576     A.U. after   15 cycles
 SCF Done:  E(ULC-wPBE) =  -1386.46957425     A.U. after   15 cycles
 SCF Done:  E(ULC-wPBE) =  -1386.46964172     A.U. after   13 cycles
 SCF Done:  E(ULC-wPBE) =  -1386.46967894     A.U. after   12 cycles
 SCF Done:  E(ULC-wPBE) =  -1386.46968106     A.U. after    8 cycles
 SCF Done:  E(ULC-wPBE) =  -1386.46968164     A.U. after    8 cycles
 SCF Done:  E(ULC-wPBE) =  -1386.46968175     A.U. after    7 cycles
 SCF Done:  E(ULC-wPBE) =  -1386.46968187     A.U. after    6 cycles
 Optimization completed.
    -- Stationary point found.

                         Standard orientation:
 ---------------------------------------------------------------------
 Center     Atomic      Atomic             Coordinates (Angstroms)
 Number     Number       Type             X           Y           Z
 ---------------------------------------------------------------------
      1          6           0      -12.205712    0.000183   -0.000066
      2          6           0      -11.503372    1.156914   -0.336445
      3          6           0      -10.109959    1.156352   -0.336036
      4          6           0       -9.392627    0.000049   -0.000017
      5          6           0      -10.110074   -1.156182    0.335954
      6          6           0      -11.503494   -1.156615    0.336300
      7          6           0       -7.904053    0.000006   -0.000032
      8          6           0       -7.181833    1.073203    0.537797
      9          6           0       -5.790137    1.072879    0.538607
     10          6           0       -5.067925   -0.000085   -0.000000
     11          6           0       -5.790192   -1.072989   -0.538613
     12          6           0       -7.181905   -1.073232   -0.537824
     13          6           0       -3.580193   -0.000134    0.000008
     14          6           0       -2.857853    0.432250    1.119970
     15          6           0       -1.466227    0.431590    1.120242
     16          6           0       -0.743883   -0.000143    0.000035
     17          6           0       -1.466183   -0.431879   -1.120135
     18          6           0       -2.857850   -0.432526   -1.119873
     19          6           0        0.743820   -0.000091    0.000075
     20          6           0        1.466168   -0.433280    1.119677
     21          6           0        2.857823   -0.433882    1.119423
     22          6           0        3.580186    0.000007    0.000101
     23          6           0        2.857799    0.433845   -1.119263
     24          6           0        1.466158    0.433144   -1.119537
     25          6           0        5.067905    0.000038    0.000054
     26          6           0        5.790201   -1.073348    0.537735
     27          6           0        7.181893   -1.073614    0.536901
     28          6           0        7.904092    0.000068    0.000004
     29          6           0        7.181860    1.073713   -0.536865
     30          6           0        5.790147    1.073427   -0.537622
     31          6           0        9.392654    0.000047   -0.000045
     32          6           0       10.110056    1.156135    0.336548
     33          6           0       11.503476    1.156636    0.336886
     34          6           0       12.205743    0.000051   -0.000133
     35          6           0       11.503449   -1.156530   -0.337095
     36          6           0       10.110035   -1.156042   -0.336676
     37          1           0      -13.300874    0.000243   -0.000075
     38          1           0      -12.045557    2.068708   -0.609325
     39          1           0       -9.565804    2.063115   -0.622262
     40          1           0       -9.566007   -2.062988    0.622206
     41          1           0      -12.045760   -2.068366    0.609161
     42          1           0       -7.720792    1.919643    0.977265
     43          1           0       -5.251515    1.931679    0.953834
     44          1           0       -5.251628   -1.931838   -0.953835
     45          1           0       -7.720898   -1.919626   -0.977335
     46          1           0       -3.396486    0.762645    2.014823
     47          1           0       -0.927638    0.787844    2.005173
     48          1           0       -0.927669   -0.788141   -2.005080
     49          1           0       -3.396401   -0.762939   -2.014768
     50          1           0        0.927671   -0.790725    2.004156
     51          1           0        3.396360   -0.765426    2.013905
     52          1           0        3.396352    0.765409   -2.013725
     53          1           0        0.927641    0.790542   -2.004025
     54          1           0        5.251674   -1.932585    0.952175
     55          1           0        7.720828   -1.920417    0.975707
     56          1           0        7.720766    1.920528   -0.975679
     57          1           0        5.251590    1.932650   -0.952056
     58          1           0        9.565970    2.062786    0.623279
     59          1           0       12.045721    2.068249    0.610243
     60          1           0       13.300884    0.000052   -0.000157
     61          1           0       12.045686   -2.068140   -0.610492
     62          1           0        9.565934   -2.062693   -0.623359
 ---------------------------------------------------------------------

 The electronic state is 1-A.
 Alpha  occ. eigenvalues --  -10.08033 -10.08025 -10.08024 -10.08022 -10.08000
 Alpha  occ. eigenvalues --  -10.07999 -10.07962 -10.07962 -10.07950 -10.07950
 Alpha  occ. eigenvalues --  -10.07154 -10.07153 -10.07150 -10.07149 -10.07120
 Alpha  occ. eigenvalues --  -10.07120 -10.07119 -10.07119 -10.07118 -10.07118
 Alpha  occ. eigenvalues --  -10.07115 -10.07115 -10.07083 -10.07083 -10.07081
 Alpha  occ. eigenvalues --  -10.07081 -10.07055 -10.07055 -10.07051 -10.07051
 Alpha  occ. eigenvalues --  -10.06972 -10.06972 -10.06970 -10.06970 -10.06959
 Alpha  occ. eigenvalues --  -10.06959  -0.97835  -0.97416  -0.96773  -0.95927
 Alpha  occ. eigenvalues --   -0.94968  -0.94224  -0.90195  -0.88564  -0.86537
 Alpha  occ. eigenvalues --   -0.85387  -0.85156  -0.84851  -0.84514  -0.84271
 Alpha  occ. eigenvalues --   -0.84211  -0.84049  -0.81908  -0.79816  -0.74373
 Alpha  occ. eigenvalues --   -0.72950  -0.72261  -0.72195  -0.71139  -0.70057
 Alpha  occ. eigenvalues --   -0.69952  -0.68850  -0.68292  -0.68106  -0.67150
 Alpha  occ. eigenvalues --   -0.66572  -0.63828  -0.63278  -0.62295  -0.60690
 Alpha  occ. eigenvalues --   -0.58641  -0.57611  -0.56930  -0.56915  -0.56659
 Alpha  occ. eigenvalues --   -0.55499  -0.54353  -0.54261  -0.53983  -0.53451
 Alpha  occ. eigenvalues --   -0.53356  -0.53264  -0.52892  -0.52661  -0.51914
 Alpha  occ. eigenvalues --   -0.51725  -0.51480  -0.51174  -0.51092  -0.50830
 Alpha  occ. eigenvalues --   -0.50554  -0.49795  -0.49019  -0.48824  -0.48073
 Alpha  occ. eigenvalues --   -0.47195  -0.46530  -0.46498  -0.46288  -0.44584
 Alpha  occ. eigenvalues --   -0.44453  -0.44138  -0.43468  -0.43174  -0.42703
 Alpha  occ. eigenvalues --   -0.42281  -0.42025  -0.41890  -0.41586  -0.38689
 Alpha  occ. eigenvalues --   -0.37387  -0.35482  -0.34832  -0.34773  -0.34711
 Alpha  occ. eigenvalues --   -0.34681  -0.34549  -0.34547  -0.33214  -0.30933
 Alpha  occ. eigenvalues --   -0.29177
 Alpha virt. eigenvalues --    0.01353   0.03206   0.05599   0.06130   0.06245
 Alpha virt. eigenvalues --    0.06322   0.06359   0.06545   0.06546   0.08074
 Alpha virt. eigenvalues --    0.10290   0.11880   0.14605   0.14613   0.15221

  Beta  occ. eigenvalues --  -10.08033 -10.08025 -10.08024 -10.08022 -10.08000
  Beta  occ. eigenvalues --  -10.07999 -10.07962 -10.07962 -10.07950 -10.07950
  Beta  occ. eigenvalues --  -10.07154 -10.07153 -10.07150 -10.07149 -10.07120
  Beta  occ. eigenvalues --  -10.07120 -10.07119 -10.07119 -10.07118 -10.07118
  Beta  occ. eigenvalues --  -10.07115 -10.07115 -10.07083 -10.07083 -10.07081
  Beta  occ. eigenvalues --  -10.07081 -10.07055 -10.07055 -10.07051 -10.07051
  Beta  occ. eigenvalues --  -10.06972 -10.06972 -10.06970 -10.06970 -10.06959
  Beta  occ. eigenvalues --  -10.06959  -0.97835  -0.97416  -0.96773  -0.95927
  Beta  occ. eigenvalues --   -0.94968  -0.94224  -0.90195  -0.88564  -0.86537
  Beta  occ. eigenvalues --   -0.85387  -0.85156  -0.84851  -0.84514  -0.84271
  Beta  occ. eigenvalues --   -0.84211  -0.84049  -0.81908  -0.79816  -0.74373
  Beta  occ. eigenvalues --   -0.72950  -0.72261  -0.72195  -0.71139  -0.70057
  Beta  occ. eigenvalues --   -0.69952  -0.68850  -0.68292  -0.68106  -0.67150
  Beta  occ. eigenvalues --   -0.66572  -0.63828  -0.63278  -0.62295  -0.60690
  Beta  occ. eigenvalues --   -0.58641  -0.57611  -0.56930  -0.56915  -0.56659
  Beta  occ. eigenvalues --   -0.55499  -0.54353  -0.54261  -0.53983  -0.53451
  Beta  occ. eigenvalues --   -0.53356  -0.53264  -0.52892  -0.52661  -0.51914
  Beta  occ. eigenvalues --   -0.51725  -0.51480  -0.51174  -0.51092  -0.50830
  Beta  occ. eigenvalues --   -0.50554  -0.49795  -0.49019  -0.48824  -0.48073
  Beta  occ. eigenvalues --   -0.47195  -0.46530  -0.46498  -0.46288  -0.44584
  Beta  occ. eigenvalues --   -0.44453  -0.44138  -0.43468  -0.43174  -0.42703
  Beta  occ. eigenvalues --   -0.42281  -0.42025  -0.41890  -0.41586  -0.38689
  Beta  occ. eigenvalues --   -0.37387  -0.35482  -0.34832  -0.34773  -0.34711
  Beta  occ. eigenvalues --   -0.34681  -0.34549  -0.34547  -0.33214  -0.30933
  Beta  occ. eigenvalues --   -0.29177
  Beta virt. eigenvalues --    0.01353   0.03206   0.05599   0.06130   0.06245
  Beta virt. eigenvalues --    0.06322   0.06359   0.06545   0.06546   0.08074
  Beta virt. eigenvalues --    0.10290   0.11880   0.14605   0.14613   0.15221

 Mulliken charges and spin densities:
               1          2
     1  C    0.009388   0.000000
     2  C    0.020459  -0.000000
     3  C   -0.001509   0.000000
     4  C   -0.001138  -0.000000
     5  C   -0.001519   0.000000
     6  C    0.020465  -0.000000
     7  C    0.007067  -0.000000
     8  C    0.011247   0.000000
     9  C    0.009761  -0.000000
    10  C    0.006312   0.000000
    11  C    0.009749  -0.000000
    12  C    0.011237   0.000000
    13  C    0.006540  -0.000000
    14  C    0.010037  -0.000000
    15  C    0.009967   0.000000
    16  C    0.006469   0.000000
    17  C    0.009964  -0.000000
    18  C    0.010019   0.000000
    19  C    0.006473   0.000000
    20  C    0.009970  -0.000000
    21  C    0.009988  -0.000000
    22  C    0.006584  -0.000000
    23  C    0.010000   0.000000
    24  C    0.009971  -0.000000
    25  C    0.006363   0.000000
    26  C    0.009725   0.000000
    27  C    0.011211  -0.000000
    28  C    0.007119   0.000000
    29  C    0.011215  -0.000000
    30  C    0.009730   0.000000
    31  C   -0.001103  -0.000000
    32  C   -0.001536   0.000000
    33  C    0.020458  -0.000000
    34  C    0.009404   0.000000
    35  C    0.020459  -0.000000
    36  C   -0.001530   0.000000
    37  H   -0.007389   0.000000
    38  H   -0.005908   0.000000
    39  H   -0.013807  -0.000000
    40  H   -0.013810  -0.000000
    41  H   -0.005907  -0.000000
    42  H   -0.013430   0.000000
    43  H   -0.013616  -0.000000
    44  H   -0.013614  -0.000000
    45  H   -0.013431   0.000000
    46  H   -0.013373  -0.000000
    47  H   -0.013415   0.000000
    48  H   -0.013428  -0.000000
    49  H   -0.013378  -0.000000
    50  H   -0.013429  -0.000000
    51  H   -0.013374  -0.000000
    52  H   -0.013373  -0.000000
    53  H   -0.013428   0.000000
    54  H   -0.013614   0.000000
    55  H   -0.013426  -0.000000
    56  H   -0.013428   0.000000
    57  H   -0.013614  -0.000000
    58  H   -0.013803  -0.000000
    59  H   -0.005909  -0.000000
    60  H   -0.007398   0.000000
    61  H   -0.005908  -0.000000
    62  H   -0.013806  -0.000000
 Sum of Mulliken charges =  -0.00000  -0.00000

 Dipole moment (field-independent basis, Debye):
    X=              0.0000    Y=             -0.0000    Z=             -0.0001  Tot=              0.0001
 Quadrupole moment (field-independent basis, Debye-Ang):
   XX=           -178.1975   YY=           -196.2720   ZZ=           -206.4800
   XY=             -0.0002   XZ=              0.0000   YZ=             -0.0000

 Normal termination of Gaussian 16 at Fri Jul 24 15:46:18 2020.
