 Gaussian 16, Revision A.03,
 Gaussian 16:  EM64L-G16RevA.03 25-Dec-2016

 ---------------------------------------------------------------
 #P uLC-wPBE/cc-pVDZ iop(3/107=0251000000, 3/108=0251000000) opt
 ---------------------------------------------------------------

 -------------
 H14 C30 N6 F6
 -------------
 Symbolic Z-matrix:
 Charge =  0 Multiplicity = 1

 SCF Done:  E(ULC-wPBE) =  -2077.52539004     A.U. after   15 cycles
 SCF Done:  E(ULC-wPBE) =  -2077.58894714     A.U. after   14 cycles
 SCF Done:  E(ULC-wPBE) =  -2077.63486521     A.U. after   14 cycles
 SCF Done:  E(ULC-wPBE) =  -2077.63662140     A.U. after   13 cycles
 SCF Done:  E(ULC-wPBE) =  -2077.63690846     A.U. after   12 cycles
 SCF Done:  E(ULC-wPBE) =  -2077.63696844     A.U. after   12 cycles
 SCF Done:  E(ULC-wPBE) =  -2077.63698421     A.U. after   11 cycles
 SCF Done:  E(ULC-wPBE) =  -2077.63699047     A.U. after   11 cycles
 SCF Done:  E(ULC-wPBE) =  -2077.63699245     A.U. after    9 cycles
 SCF Done:  E(ULC-wPBE) =  -2077.63699279     A.U. after    8 cycles
 SCF Done:  E(ULC-wPBE) =  -2077.63699289     A.U. after    7 cycles
 Optimization completed.
    -- Stationary point found.

                         Standard orientation:
 ---------------------------------------------------------------------
 Center     Atomic      Atomic             Coordinates (Angstroms)
 Number     Number       Type             X           Y           Z
 ---------------------------------------------------------------------
      1          6           0      -11.989366    0.322850    0.052609
      2          6           0      -11.276961    1.371761   -0.525319
      3          6           0       -9.892431    1.266013   -0.571555
      4          9           0       -9.179390    2.246216   -1.150335
      5          6           0       -9.249228    0.137069   -0.044424
      6          7           0       -9.945830   -0.872327    0.497944
      7          6           0      -11.278129   -0.774713    0.543202
      8          6           0       -7.761499    0.020007   -0.045013
      9          7           0       -7.053609    1.081719    0.365394
     10          6           0       -5.723087    0.992276    0.405231
     11          6           0       -4.998331   -0.152642    0.035585
     12          6           0       -5.735357   -1.260066   -0.400236
     13          6           0       -7.118826   -1.162814   -0.437788
     14          9           0       -7.830337   -2.207296   -0.889899
     15          6           0       -3.516384   -0.184095    0.104236
     16          6           0       -2.828171   -1.309591    0.571982
     17          6           0       -1.441645   -1.272268    0.607665
     18          9           0       -0.776234   -2.333686    1.089887
     19          6           0       -0.748364   -0.130318    0.181708
     20          7           0       -1.409321    0.949600   -0.258981
     21          6           0       -2.742260    0.917314   -0.297403
     22          6           0        0.741814   -0.076389    0.178774
     23          7           0        1.400243   -1.136557   -0.311592
     24          6           0        2.732678   -1.101728   -0.354773
     25          6           0        3.509520   -0.019442    0.090806
     26          6           0        2.824226    1.084731    0.610946
     27          6           0        1.437564    1.045640    0.650790
     28          9           0        0.774689    2.084096    1.183075
     29          6           0        4.990783   -0.047032    0.009124
     30          6           0        5.720345   -1.202865    0.311665
     31          6           0        7.103374   -1.159450    0.207094
     32          9           0        7.812358   -2.251633    0.532344
     33          6           0        7.752490    0.016921   -0.193921
     34          7           0        7.052314    1.124955   -0.475645
     35          6           0        5.722528    1.086990   -0.379440
     36          6           0        9.235884    0.077860   -0.344782
     37          7           0        9.829303   -0.927794   -1.004134
     38          6           0       11.152818   -0.878194   -1.184191
     39          6           0       11.957031    0.165207   -0.719750
     40          6           0       11.353322    1.209009   -0.021353
     41          6           0        9.977689    1.153103    0.164848
     42          9           0        9.370693    2.128378    0.861290
     43          1           0      -13.082921    0.354195    0.117145
     44          1           0      -11.765000    2.259426   -0.942810
     45          1           0      -11.806651   -1.623462    0.999383
     46          1           0       -5.193852    1.881867    0.774980
     47          1           0       -5.255251   -2.186159   -0.736650
     48          1           0       -3.348325   -2.203719    0.934251
     49          1           0       -3.232369    1.818247   -0.692550
     50          1           0        3.220844   -1.985161   -0.790549
     51          1           0        3.346144    1.961345    1.010800
     52          1           0        5.238601   -2.125862    0.653409
     53          1           0        5.196513    2.014514   -0.647603
     54          1           0       11.594747   -1.721730   -1.732776
     55          1           0       13.038451    0.158727   -0.897194
     56          1           0       11.919191    2.055071    0.384124
 ---------------------------------------------------------------------

 The electronic state is 1-A.
 Alpha  occ. eigenvalues --  -24.43843 -24.43802 -24.43664 -24.43641 -24.43415
 Alpha  occ. eigenvalues --  -24.43396 -14.15493 -14.15468 -14.15329 -14.15307
 Alpha  occ. eigenvalues --  -14.14939 -14.14935 -10.14195 -10.14174 -10.14025
 Alpha  occ. eigenvalues --  -10.14010 -10.13681 -10.13673 -10.09895 -10.09883
 Alpha  occ. eigenvalues --  -10.09701 -10.09699 -10.09452 -10.09448 -10.08727
 Alpha  occ. eigenvalues --  -10.08688 -10.08622 -10.08584 -10.08262 -10.08260
 Alpha  occ. eigenvalues --  -10.08163 -10.08160 -10.08108 -10.08107 -10.07645
 Alpha  occ. eigenvalues --  -10.07606 -10.07543 -10.07510 -10.07157 -10.07150
 Alpha  occ. eigenvalues --  -10.06644 -10.06642  -1.28006  -1.27960  -1.27826
 Alpha  occ. eigenvalues --   -1.27807  -1.27537  -1.27523  -1.03855  -1.03477
 Alpha  occ. eigenvalues --   -1.03416  -1.02215  -1.01723  -1.01672  -0.92696
 Alpha  occ. eigenvalues --   -0.92270  -0.89054  -0.89052  -0.88567  -0.88282
 Alpha  occ. eigenvalues --   -0.87539  -0.87121  -0.86891  -0.84620  -0.83038
 Alpha  occ. eigenvalues --   -0.81453  -0.77348  -0.75296  -0.74537  -0.73947
 Alpha  occ. eigenvalues --   -0.72962  -0.72926  -0.72060  -0.71170  -0.71096
 Alpha  occ. eigenvalues --   -0.70693  -0.69603  -0.69029  -0.64537  -0.64251
 Alpha  occ. eigenvalues --   -0.63394  -0.63287  -0.62721  -0.62091  -0.61820
 Alpha  occ. eigenvalues --   -0.60848  -0.60611  -0.60055  -0.59832  -0.59480
 Alpha  occ. eigenvalues --   -0.59325  -0.58891  -0.58673  -0.57472  -0.56700
 Alpha  occ. eigenvalues --   -0.55677  -0.55667  -0.55381  -0.55332  -0.55111
 Alpha  occ. eigenvalues --   -0.54755  -0.54750  -0.53429  -0.52349  -0.51508
 Alpha  occ. eigenvalues --   -0.51328  -0.50612  -0.50297  -0.49882  -0.49849
 Alpha  occ. eigenvalues --   -0.49667  -0.49639  -0.49215  -0.48958  -0.48855
 Alpha  occ. eigenvalues --   -0.48619  -0.48597  -0.48296  -0.48206  -0.48064
 Alpha  occ. eigenvalues --   -0.47615  -0.46766  -0.46107  -0.45957  -0.45318
 Alpha  occ. eigenvalues --   -0.45009  -0.44892  -0.41510  -0.40373  -0.38192
 Alpha  occ. eigenvalues --   -0.38008  -0.37153  -0.37054  -0.35908  -0.35848
 Alpha  occ. eigenvalues --   -0.35505  -0.35229  -0.35128  -0.34905  -0.34054
 Alpha  occ. eigenvalues --   -0.33630  -0.33535  -0.33279  -0.32178  -0.31083
 Alpha virt. eigenvalues --   -0.02093  -0.00333   0.01574   0.02958   0.03282
 Alpha virt. eigenvalues --    0.03318   0.03412   0.03673   0.04344   0.05131
 Alpha virt. eigenvalues --    0.07188   0.08717   0.13245   0.13275   0.13981

  Beta  occ. eigenvalues --  -24.43843 -24.43802 -24.43664 -24.43641 -24.43415
  Beta  occ. eigenvalues --  -24.43396 -14.15493 -14.15468 -14.15329 -14.15307
  Beta  occ. eigenvalues --  -14.14939 -14.14935 -10.14195 -10.14174 -10.14025
  Beta  occ. eigenvalues --  -10.14010 -10.13681 -10.13673 -10.09895 -10.09883
  Beta  occ. eigenvalues --  -10.09701 -10.09699 -10.09452 -10.09448 -10.08727
  Beta  occ. eigenvalues --  -10.08688 -10.08622 -10.08584 -10.08262 -10.08260
  Beta  occ. eigenvalues --  -10.08163 -10.08160 -10.08108 -10.08107 -10.07645
  Beta  occ. eigenvalues --  -10.07606 -10.07543 -10.07510 -10.07157 -10.07150
  Beta  occ. eigenvalues --  -10.06644 -10.06642  -1.28006  -1.27960  -1.27826
  Beta  occ. eigenvalues --   -1.27807  -1.27537  -1.27523  -1.03855  -1.03477
  Beta  occ. eigenvalues --   -1.03416  -1.02215  -1.01723  -1.01672  -0.92696
  Beta  occ. eigenvalues --   -0.92270  -0.89054  -0.89052  -0.88567  -0.88282
  Beta  occ. eigenvalues --   -0.87539  -0.87121  -0.86891  -0.84620  -0.83038
  Beta  occ. eigenvalues --   -0.81453  -0.77348  -0.75296  -0.74537  -0.73947
  Beta  occ. eigenvalues --   -0.72962  -0.72926  -0.72060  -0.71170  -0.71096
  Beta  occ. eigenvalues --   -0.70693  -0.69603  -0.69029  -0.64537  -0.64251
  Beta  occ. eigenvalues --   -0.63394  -0.63287  -0.62721  -0.62091  -0.61820
  Beta  occ. eigenvalues --   -0.60848  -0.60611  -0.60055  -0.59832  -0.59480
  Beta  occ. eigenvalues --   -0.59325  -0.58891  -0.58673  -0.57472  -0.56700
  Beta  occ. eigenvalues --   -0.55677  -0.55667  -0.55381  -0.55332  -0.55111
  Beta  occ. eigenvalues --   -0.54755  -0.54750  -0.53429  -0.52349  -0.51508
  Beta  occ. eigenvalues --   -0.51328  -0.50612  -0.50297  -0.49882  -0.49849
  Beta  occ. eigenvalues --   -0.49667  -0.49639  -0.49215  -0.48958  -0.48855
  Beta  occ. eigenvalues --   -0.48619  -0.48597  -0.48296  -0.48206  -0.48064
  Beta  occ. eigenvalues --   -0.47615  -0.46766  -0.46107  -0.45957  -0.45318
  Beta  occ. eigenvalues --   -0.45009  -0.44892  -0.41510  -0.40373  -0.38192
  Beta  occ. eigenvalues --   -0.38008  -0.37153  -0.37054  -0.35908  -0.35848
  Beta  occ. eigenvalues --   -0.35505  -0.35229  -0.35128  -0.34905  -0.34054
  Beta  occ. eigenvalues --   -0.33630  -0.33535  -0.33279  -0.32178  -0.31083
  Beta virt. eigenvalues --   -0.02093  -0.00333   0.01574   0.02958   0.03282
  Beta virt. eigenvalues --    0.03318   0.03412   0.03673   0.04344   0.05131
  Beta virt. eigenvalues --    0.07188   0.08717   0.13245   0.13275   0.13981

 Mulliken charges and spin densities:
               1          2
     1  C   -0.020803  -0.000000
     2  C    0.051875   0.000000
     3  C    0.127941  -0.000000
     4  F   -0.108568  -0.000000
     5  C    0.018061  -0.000000
     6  N   -0.171349  -0.000000
     7  C    0.078841   0.000000
     8  C    0.026795   0.000000
     9  N   -0.166702  -0.000000
    10  C    0.083409   0.000000
    11  C   -0.050417   0.000000
    12  C    0.058894  -0.000000
    13  C    0.136007   0.000000
    14  F   -0.105305  -0.000000
    15  C   -0.049519   0.000000
    16  C    0.059525   0.000000
    17  C    0.136007  -0.000000
    18  F   -0.105496  -0.000000
    19  C    0.023568  -0.000000
    20  N   -0.167865  -0.000000
    21  C    0.084177  -0.000000
    22  C    0.023399   0.000000
    23  N   -0.168198  -0.000000
    24  C    0.083626   0.000000
    25  C   -0.048266   0.000000
    26  C    0.058781  -0.000000
    27  C    0.136422   0.000000
    28  F   -0.104701  -0.000000
    29  C   -0.049207  -0.000000
    30  C    0.058177   0.000000
    31  C    0.136095  -0.000000
    32  F   -0.105080  -0.000000
    33  C    0.026686  -0.000000
    34  N   -0.166675  -0.000000
    35  C    0.082973   0.000000
    36  C    0.018084   0.000000
    37  N   -0.170982  -0.000000
    38  C    0.078972   0.000000
    39  C   -0.020798  -0.000000
    40  C    0.051881   0.000000
    41  C    0.127648  -0.000000
    42  F   -0.109101   0.000000
    43  H    0.004067  -0.000000
    44  H    0.013854   0.000000
    45  H    0.010946   0.000000
    46  H    0.009895  -0.000000
    47  H    0.005288  -0.000000
    48  H    0.005957   0.000000
    49  H    0.010690  -0.000000
    50  H    0.008617   0.000000
    51  H    0.007857   0.000000
    52  H    0.007028   0.000000
    53  H    0.008060   0.000000
    54  H    0.011131  -0.000000
    55  H    0.004083  -0.000000
    56  H    0.013717   0.000000
 Sum of Mulliken charges =  -0.00000  -0.00000

 Dipole moment (field-independent basis, Debye):
    X=              0.0431    Y=              0.0284    Z=              0.3764  Tot=              0.3799
 Quadrupole moment (field-independent basis, Debye-Ang):
   XX=           -149.0084   YY=           -231.9645   ZZ=           -233.0615
   XY=              1.4658   XZ=              4.7043   YZ=             -0.3660

 Normal termination of Gaussian 16 at Sat Jul 25 01:39:22 2020.
