 Gaussian 16, Revision A.03,
 Gaussian 16:  EM64L-G16RevA.03 25-Dec-2016

 ---------------------------------------------------------------
 #P uLC-wPBE/cc-pVDZ iop(3/107=0096100000, 3/108=0096100000) opt
 ---------------------------------------------------------------

 --------------
 H23 C49 S7 N21
 --------------
 Symbolic Z-matrix:
 Charge =  0 Multiplicity = 1

 SCF Done:  E(ULC-wPBE) =  -5814.28538394     A.U. after   18 cycles
 SCF Done:  E(ULC-wPBE) =  -5814.37593408     A.U. after   13 cycles
 SCF Done:  E(ULC-wPBE) =  -5814.45420833     A.U. after   15 cycles
 SCF Done:  E(ULC-wPBE) =  -5814.47625364     A.U. after   15 cycles
 SCF Done:  E(ULC-wPBE) =  -5814.48098947     A.U. after   15 cycles
 SCF Done:  E(ULC-wPBE) =  -5814.48153267     A.U. after   15 cycles
 SCF Done:  E(ULC-wPBE) =  -5814.48208002     A.U. after   14 cycles
 SCF Done:  E(ULC-wPBE) =  -5814.48220454     A.U. after   12 cycles
 SCF Done:  E(ULC-wPBE) =  -5814.48225944     A.U. after   12 cycles
 SCF Done:  E(ULC-wPBE) =  -5814.48228843     A.U. after   10 cycles
 SCF Done:  E(ULC-wPBE) =  -5814.48231411     A.U. after   10 cycles
 SCF Done:  E(ULC-wPBE) =  -5814.48231714     A.U. after   10 cycles
 SCF Done:  E(ULC-wPBE) =  -5814.48231908     A.U. after   10 cycles
 SCF Done:  E(ULC-wPBE) =  -5814.48231978     A.U. after   10 cycles
 SCF Done:  E(ULC-wPBE) =  -5814.48232036     A.U. after   10 cycles
 SCF Done:  E(ULC-wPBE) =  -5814.48232046     A.U. after    7 cycles
 SCF Done:  E(ULC-wPBE) =  -5814.48232071     A.U. after    7 cycles
 SCF Done:  E(ULC-wPBE) =  -5814.48232074     A.U. after    6 cycles
 SCF Done:  E(ULC-wPBE) =  -5814.48232074     A.U. after    6 cycles
 SCF Done:  E(ULC-wPBE) =  -5814.48232075     A.U. after    6 cycles
 Optimization completed.
    -- Stationary point found.

                         Standard orientation:
 ---------------------------------------------------------------------
 Center     Atomic      Atomic             Coordinates (Angstroms)
 Number     Number       Type             X           Y           Z
 ---------------------------------------------------------------------
      1          6           0       26.352714    1.365178    0.880666
      2          6           0       25.761967    2.293627    0.011843
      3          7           0       24.461191    2.260062   -0.321346
      4          6           0       23.750555    1.260110    0.241506
      5          7           0       24.204955    0.308227    1.089841
      6          6           0       25.508477    0.374616    1.400400
      7          6           0       22.315360    1.169717   -0.084580
      8          7           0       21.645856    1.973465   -0.885488
      9          6           0       20.337262    1.596321   -0.953697
     10          6           0       19.960966    0.484599   -0.200945
     11         16           0       21.363718   -0.122956    0.650842
     12          6           0       18.640533   -0.130880   -0.098005
     13          6           0       18.440172   -1.481361    0.274162
     14          7           0       17.237406   -2.058117    0.363506
     15          6           0       16.187076   -1.266164    0.059578
     16          7           0       16.237853    0.037340   -0.303902
     17          6           0       17.452634    0.588678   -0.369111
     18          6           0       14.838357   -1.849440    0.125030
     19          7           0       14.541505   -3.091149    0.452774
     20          6           0       13.193517   -3.287424    0.405556
     21          6           0       12.408725   -2.195076    0.036767
     22         16           0       13.454271   -0.825808   -0.271141
     23          6           0       10.955114   -2.128188   -0.084844
     24          6           0       10.163045   -3.281436   -0.304079
     25          7           0        8.829542   -3.259011   -0.393659
     26          6           0        8.255743   -2.041268   -0.282850
     27          7           0        8.894699   -0.862572   -0.096394
     28          6           0       10.225145   -0.920395    0.006558
     29          6           0        6.790192   -1.956239   -0.373602
     30          7           0        5.961523   -2.964505   -0.559511
     31          6           0        4.672674   -2.522218   -0.589222
     32          6           0        4.470910   -1.151975   -0.424962
     33         16           0        6.023901   -0.372382   -0.218745
     34          6           0        3.207945   -0.419041   -0.422750
     35          6           0        1.975828   -1.045026   -0.118525
     36          7           0        0.807804   -0.397689   -0.136054
     37          6           0        0.854288    0.920284   -0.444169
     38          7           0        1.959467    1.640432   -0.732297
     39          6           0        3.110283    0.960354   -0.723373
     40          6           0       -0.443797    1.611617   -0.451352
     41          7           0       -0.647265    2.883701   -0.730424
     42          6           0       -1.973373    3.185374   -0.640194
     43          6           0       -2.834700    2.147229   -0.285738
     44         16           0       -1.896030    0.689055   -0.050691
     45          6           0       -4.285512    2.192868   -0.126459
     46          6           0       -4.975866    3.397815    0.150799
     47          7           0       -6.304102    3.479386    0.276141
     48          6           0       -6.977561    2.316010    0.142602
     49          7           0       -6.440787    1.096800   -0.098443
     50          6           0       -5.113042    1.051336   -0.235936
     51          6           0       -8.442321    2.346213    0.270348
     52          7           0       -9.181148    3.411427    0.509811
     53          6           0      -10.500720    3.074033    0.560895
     54          6           0      -10.817789    1.730752    0.359887
     55         16           0       -9.339280    0.835547    0.087266
     56          6           0      -12.136255    1.102955    0.368985
     57          6           0      -12.340050   -0.271754    0.635573
     58          7           0      -13.542084   -0.856010    0.654868
     59          6           0      -14.591273   -0.040648    0.412961
     60          7           0      -14.535781    1.285038    0.140391
     61          6           0      -13.319325    1.835245    0.111298
     62          6           0      -15.940800   -0.623943    0.434305
     63          7           0      -16.240624   -1.882928    0.685226
     64          6           0      -17.588879   -2.073216    0.621667
     65          6           0      -18.371017   -0.959411    0.316863
     66         16           0      -17.322394    0.423467    0.095285
     67          6           0      -19.824387   -0.882075    0.193129
     68          6           0      -20.556767    0.314885    0.372078
     69          7           0      -21.886940    0.396284    0.269972
     70          6           0      -22.524581   -0.761767   -0.009126
     71          7           0      -21.945463   -1.970468   -0.208002
     72          6           0      -20.614067   -2.014620   -0.115423
     73          6           0      -23.991305   -0.735631   -0.118785
     74          7           0      -24.762465    0.320243    0.039622
     75          6           0      -26.077817   -0.019872   -0.132703
     76          6           0      -26.329556   -1.347845   -0.426637
     77         16           0      -24.848083   -2.237237   -0.495846
     78          1           0       27.418789    1.411080    1.139990
     79          1           0       26.356013    3.105394   -0.441189
     80          1           0       25.886161   -0.397221    2.091604
     81          1           0       19.655289    2.157788   -1.606595
     82          1           0       19.306370   -2.126669    0.503890
     83          1           0       17.490214    1.658265   -0.634578
     84          1           0       12.789099   -4.271161    0.679705
     85          1           0       10.638990   -4.268985   -0.427057
     86          1           0       10.746385    0.037449    0.177563
     87          1           0        3.865764   -3.246706   -0.764111
     88          1           0        1.939808   -2.110261    0.164146
     89          1           0        4.017199    1.537446   -0.976401
     90          1           0       -2.303621    4.207148   -0.871161
     91          1           0       -4.418549    4.339320    0.291964
     92          1           0       -4.675496    0.061092   -0.451461
     93          1           0      -11.241422    3.855009    0.779946
     94          1           0      -11.477916   -0.927457    0.851212
     95          1           0      -13.274003    2.907365   -0.142787
     96          1           0      -17.996376   -3.070734    0.834812
     97          1           0      -20.030223    1.253974    0.618931
     98          1           0      -20.142935   -2.992761   -0.309728
     99          1           0      -26.850602    0.753793   -0.032726
    100          1           0      -27.294940   -1.835237   -0.602240
 ---------------------------------------------------------------------

 Alpha  occ. eigenvalues --  -14.08209 -14.08174 -14.08000 -14.07899 -14.07880
 Alpha  occ. eigenvalues --  -14.07806 -14.07702 -14.07638 -14.07468 -14.07422
 Alpha  occ. eigenvalues --  -14.07388 -14.07379 -14.07350 -14.07269 -14.07129
 Alpha  occ. eigenvalues --  -14.06900 -14.06838 -14.05854 -10.04777 -10.04760
 Alpha  occ. eigenvalues --  -10.04740 -10.04685 -10.04564 -10.04347 -10.03807
 Alpha  occ. eigenvalues --  -10.03207 -10.03155 -10.03138 -10.03082 -10.02921
 Alpha  occ. eigenvalues --  -10.02635 -10.02602 -10.02555 -10.02542 -10.02390
 Alpha  occ. eigenvalues --  -10.02384 -10.02379 -10.02360 -10.02278 -10.02240
 Alpha  occ. eigenvalues --  -10.02228 -10.02165 -10.01975 -10.01758 -10.01581
 Alpha  occ. eigenvalues --  -10.01576 -10.01556 -10.01537 -10.01500 -10.01452
 Alpha  occ. eigenvalues --  -10.01303 -10.00985 -10.00857 -10.00830 -10.00778
 Alpha  occ. eigenvalues --  -10.00663 -10.00507 -10.00502 -10.00479 -10.00454
 Alpha  occ. eigenvalues --  -10.00374 -10.00229  -9.99948  -9.99885  -9.99156
 Alpha  occ. eigenvalues --   -9.99051  -9.98765  -7.78126  -7.78096  -7.78072
 Alpha  occ. eigenvalues --   -7.78003  -7.77845  -7.77539  -7.76676  -5.80176
 Alpha  occ. eigenvalues --   -5.80146  -5.80122  -5.80053  -5.79895  -5.79761
 Alpha  occ. eigenvalues --   -5.79730  -5.79707  -5.79639  -5.79588  -5.79480
 Alpha  occ. eigenvalues --   -5.79437  -5.79410  -5.79384  -5.79315  -5.79174
 Alpha  occ. eigenvalues --   -5.79157  -5.78851  -5.78710  -5.78298  -5.78017
 Alpha  occ. eigenvalues --   -0.98270  -0.98202  -0.98134  -0.98016  -0.97949
 Alpha  occ. eigenvalues --   -0.97789  -0.97188  -0.95210  -0.95098  -0.95003
 Alpha  occ. eigenvalues --   -0.94947  -0.94820  -0.94524  -0.93480  -0.88769
 Alpha  occ. eigenvalues --   -0.88733  -0.88679  -0.88557  -0.88458  -0.88340
 Alpha  occ. eigenvalues --   -0.87781  -0.83764  -0.83578  -0.83384  -0.83220
 Alpha  occ. eigenvalues --   -0.83055  -0.82638  -0.80458  -0.79400  -0.79208
 Alpha  occ. eigenvalues --   -0.78975  -0.78679  -0.78543  -0.78331  -0.77860
 Alpha  occ. eigenvalues --   -0.76419  -0.75752  -0.74998  -0.74212  -0.73393
 Alpha  occ. eigenvalues --   -0.72652  -0.72013  -0.69526  -0.68852  -0.68302
 Alpha  occ. eigenvalues --   -0.67830  -0.67670  -0.67433  -0.67006  -0.66946
 Alpha  occ. eigenvalues --   -0.66743  -0.66709  -0.66402  -0.65969  -0.65579
 Alpha  occ. eigenvalues --   -0.65281  -0.60691  -0.60415  -0.60232  -0.59602
 Alpha  occ. eigenvalues --   -0.59456  -0.59285  -0.58963  -0.58815  -0.58720
 Alpha  occ. eigenvalues --   -0.58476  -0.58162  -0.58059  -0.57918  -0.57134
 Alpha  occ. eigenvalues --   -0.55102  -0.54959  -0.54753  -0.54387  -0.54218
 Alpha  occ. eigenvalues --   -0.54013  -0.53321  -0.52938  -0.52752  -0.52575
 Alpha  occ. eigenvalues --   -0.52421  -0.52187  -0.51923  -0.51449  -0.51297
 Alpha  occ. eigenvalues --   -0.49999  -0.49495  -0.49006  -0.48430  -0.48028
 Alpha  occ. eigenvalues --   -0.47454  -0.47449  -0.47317  -0.47162  -0.47001
 Alpha  occ. eigenvalues --   -0.46866  -0.46719  -0.46635  -0.46047  -0.46005
 Alpha  occ. eigenvalues --   -0.45944  -0.45807  -0.45763  -0.45673  -0.45361
 Alpha  occ. eigenvalues --   -0.44410  -0.44084  -0.43897  -0.43854  -0.43723
 Alpha  occ. eigenvalues --   -0.43686  -0.43641  -0.43526  -0.43383  -0.43347
 Alpha  occ. eigenvalues --   -0.43156  -0.43077  -0.42932  -0.42807  -0.42722
 Alpha  occ. eigenvalues --   -0.42624  -0.42549  -0.42508  -0.42400  -0.42192
 Alpha  occ. eigenvalues --   -0.41639  -0.41213  -0.39606  -0.39494  -0.39397
 Alpha  occ. eigenvalues --   -0.39275  -0.39156  -0.38825  -0.38056  -0.37461
 Alpha  occ. eigenvalues --   -0.36947  -0.36328  -0.36026  -0.35978  -0.35936
 Alpha  occ. eigenvalues --   -0.35808  -0.35683  -0.35624  -0.35549  -0.35082
 Alpha  occ. eigenvalues --   -0.34829  -0.34177  -0.33630  -0.33538  -0.33497
 Alpha  occ. eigenvalues --   -0.33373  -0.33356  -0.33143  -0.33110  -0.32557
 Alpha  occ. eigenvalues --   -0.31790  -0.31729  -0.31623  -0.31524  -0.31388
 Alpha  occ. eigenvalues --   -0.31228  -0.30708  -0.30158  -0.30088  -0.30018
 Alpha  occ. eigenvalues --   -0.29945  -0.29869  -0.29636  -0.29510  -0.28885
 Alpha  occ. eigenvalues --   -0.28655  -0.28110  -0.27864  -0.27663  -0.27603
 Alpha  occ. eigenvalues --   -0.27543  -0.27415  -0.27320  -0.26863  -0.26652
 Alpha  occ. eigenvalues --   -0.25935  -0.25159  -0.24579
 Alpha virt. eigenvalues --   -0.09127  -0.08424  -0.07541  -0.06526  -0.05529
 Alpha virt. eigenvalues --   -0.04638  -0.04314  -0.04263  -0.04190  -0.04073
 Alpha virt. eigenvalues --   -0.04042  -0.03935  -0.03704  -0.03396  -0.01490

  Beta  occ. eigenvalues --  -88.17897 -88.17871 -88.17844 -88.17774 -88.17616
  Beta  occ. eigenvalues --  -88.17310 -88.16446 -14.08446 -14.08388 -14.08353
  Beta  occ. eigenvalues --  -14.08209 -14.08174 -14.08000 -14.07899 -14.07880
  Beta  occ. eigenvalues --  -14.07806 -14.07702 -14.07638 -14.07468 -14.07422
  Beta  occ. eigenvalues --  -14.07388 -14.07379 -14.07350 -14.07269 -14.07129
  Beta  occ. eigenvalues --  -14.06900 -14.06838 -14.05854 -10.04777 -10.04760
  Beta  occ. eigenvalues --  -10.04740 -10.04685 -10.04564 -10.04347 -10.03807
  Beta  occ. eigenvalues --  -10.03207 -10.03155 -10.03138 -10.03082 -10.02921
  Beta  occ. eigenvalues --  -10.02635 -10.02602 -10.02555 -10.02542 -10.02390
  Beta  occ. eigenvalues --  -10.02384 -10.02379 -10.02360 -10.02278 -10.02240
  Beta  occ. eigenvalues --  -10.02228 -10.02165 -10.01975 -10.01758 -10.01581
  Beta  occ. eigenvalues --  -10.01576 -10.01556 -10.01537 -10.01500 -10.01452
  Beta  occ. eigenvalues --  -10.01303 -10.00985 -10.00857 -10.00830 -10.00778
  Beta  occ. eigenvalues --  -10.00663 -10.00507 -10.00502 -10.00479 -10.00454
  Beta  occ. eigenvalues --  -10.00374 -10.00229  -9.99948  -9.99885  -9.99156
  Beta  occ. eigenvalues --   -9.99051  -9.98765  -7.78126  -7.78096  -7.78072
  Beta  occ. eigenvalues --   -7.78003  -7.77845  -7.77539  -7.76676  -5.80176
  Beta  occ. eigenvalues --   -5.80146  -5.80122  -5.80053  -5.79895  -5.79761
  Beta  occ. eigenvalues --   -5.79730  -5.79707  -5.79639  -5.79588  -5.79480
  Beta  occ. eigenvalues --   -5.79437  -5.79410  -5.79384  -5.79315  -5.79174
  Beta  occ. eigenvalues --   -5.79157  -5.78851  -5.78710  -5.78298  -5.78017
  Beta  occ. eigenvalues --   -0.98270  -0.98202  -0.98134  -0.98016  -0.97949
  Beta  occ. eigenvalues --   -0.97789  -0.97188  -0.95210  -0.95098  -0.95003
  Beta  occ. eigenvalues --   -0.94947  -0.94820  -0.94524  -0.93480  -0.88769
  Beta  occ. eigenvalues --   -0.88733  -0.88679  -0.88557  -0.88458  -0.88340
  Beta  occ. eigenvalues --   -0.87781  -0.83764  -0.83578  -0.83384  -0.83220
  Beta  occ. eigenvalues --   -0.83055  -0.82638  -0.80458  -0.79400  -0.79208
  Beta  occ. eigenvalues --   -0.78975  -0.78679  -0.78543  -0.78331  -0.77860
  Beta  occ. eigenvalues --   -0.76419  -0.75752  -0.74998  -0.74212  -0.73393
  Beta  occ. eigenvalues --   -0.72652  -0.72013  -0.69526  -0.68852  -0.68302
  Beta  occ. eigenvalues --   -0.67830  -0.67670  -0.67433  -0.67006  -0.66946
  Beta  occ. eigenvalues --   -0.66743  -0.66709  -0.66402  -0.65969  -0.65579
  Beta  occ. eigenvalues --   -0.65281  -0.60691  -0.60415  -0.60232  -0.59602
  Beta  occ. eigenvalues --   -0.59456  -0.59285  -0.58963  -0.58815  -0.58720
  Beta  occ. eigenvalues --   -0.58476  -0.58162  -0.58059  -0.57918  -0.57134
  Beta  occ. eigenvalues --   -0.55102  -0.54959  -0.54753  -0.54387  -0.54218
  Beta  occ. eigenvalues --   -0.54013  -0.53321  -0.52938  -0.52752  -0.52575
  Beta  occ. eigenvalues --   -0.52421  -0.52187  -0.51923  -0.51449  -0.51297
  Beta  occ. eigenvalues --   -0.49999  -0.49495  -0.49006  -0.48430  -0.48028
  Beta  occ. eigenvalues --   -0.47454  -0.47449  -0.47317  -0.47162  -0.47001
  Beta  occ. eigenvalues --   -0.46866  -0.46719  -0.46635  -0.46047  -0.46005
  Beta  occ. eigenvalues --   -0.45944  -0.45807  -0.45763  -0.45673  -0.45361
  Beta  occ. eigenvalues --   -0.44410  -0.44084  -0.43897  -0.43854  -0.43723
  Beta  occ. eigenvalues --   -0.43686  -0.43641  -0.43526  -0.43383  -0.43347
  Beta  occ. eigenvalues --   -0.43156  -0.43077  -0.42932  -0.42807  -0.42722
  Beta  occ. eigenvalues --   -0.42624  -0.42549  -0.42508  -0.42400  -0.42192
  Beta  occ. eigenvalues --   -0.41639  -0.41213  -0.39606  -0.39494  -0.39397
  Beta  occ. eigenvalues --   -0.39275  -0.39156  -0.38825  -0.38056  -0.37461
  Beta  occ. eigenvalues --   -0.36947  -0.36328  -0.36026  -0.35978  -0.35936
  Beta  occ. eigenvalues --   -0.35808  -0.35683  -0.35624  -0.35549  -0.35082
  Beta  occ. eigenvalues --   -0.34829  -0.34177  -0.33630  -0.33538  -0.33497
  Beta  occ. eigenvalues --   -0.33373  -0.33356  -0.33143  -0.33110  -0.32557
  Beta  occ. eigenvalues --   -0.31790  -0.31729  -0.31623  -0.31524  -0.31388
  Beta  occ. eigenvalues --   -0.31228  -0.30708  -0.30158  -0.30088  -0.30018
  Beta  occ. eigenvalues --   -0.29945  -0.29869  -0.29636  -0.29510  -0.28885
  Beta  occ. eigenvalues --   -0.28655  -0.28110  -0.27864  -0.27663  -0.27603
  Beta  occ. eigenvalues --   -0.27543  -0.27415  -0.27320  -0.26863  -0.26652
  Beta  occ. eigenvalues --   -0.25935  -0.25159  -0.24579
  Beta virt. eigenvalues --   -0.09127  -0.08424  -0.07541  -0.06526  -0.05529
  Beta virt. eigenvalues --   -0.04638  -0.04314  -0.04263  -0.04190  -0.04073
  Beta virt. eigenvalues --   -0.04042  -0.03935  -0.03704  -0.03396  -0.01490

 Mulliken charges and spin densities:
               1          2
     1  C   -0.045984   0.000000
     2  C    0.115455   0.000000
     3  N   -0.158057  -0.000000
     4  C    0.171722   0.000000
     5  N   -0.200280  -0.000000
     6  C    0.122715  -0.000000
     7  C   -0.016350  -0.000000
     8  N   -0.144495   0.000000
     9  C    0.119944   0.000000
    10  C   -0.209965  -0.000000
    11  S    0.184887   0.000000
    12  C   -0.038043  -0.000000
    13  C    0.121516   0.000000
    14  N   -0.152409   0.000000
    15  C    0.171343  -0.000000
    16  N   -0.196892   0.000000
    17  C    0.131377   0.000000
    18  C   -0.016297  -0.000000
    19  N   -0.145272   0.000000
    20  C    0.121411  -0.000000
    21  C   -0.209349  -0.000000
    22  S    0.182591  -0.000000
    23  C   -0.038183  -0.000000
    24  C    0.120542   0.000000
    25  N   -0.153256   0.000000
    26  C    0.171324   0.000000
    27  N   -0.195866   0.000000
    28  C    0.132041   0.000000
    29  C   -0.016686  -0.000000
    30  N   -0.145682   0.000000
    31  C    0.120636  -0.000000
    32  C   -0.209507  -0.000000
    33  S    0.185857  -0.000000
    34  C   -0.038256   0.000000
    35  C    0.131325  -0.000000
    36  N   -0.196739  -0.000000
    37  C    0.171413  -0.000000
    38  N   -0.152281  -0.000000
    39  C    0.121351   0.000000
    40  C   -0.016503   0.000000
    41  N   -0.145295  -0.000000
    42  C    0.121320  -0.000000
    43  C   -0.209129  -0.000000
    44  S    0.182555  -0.000000
    45  C   -0.038324  -0.000000
    46  C    0.120364   0.000000
    47  N   -0.153275  -0.000000
    48  C    0.171191  -0.000000
    49  N   -0.195734  -0.000000
    50  C    0.131848  -0.000000
    51  C   -0.017207   0.000000
    52  N   -0.145862  -0.000000
    53  C    0.120390   0.000000
    54  C   -0.209182  -0.000000
    55  S    0.185259   0.000000
    56  C   -0.039005   0.000000
    57  C    0.120961  -0.000000
    58  N   -0.152722   0.000000
    59  C    0.171092  -0.000000
    60  N   -0.196235   0.000000
    61  C    0.130976   0.000000
    62  C   -0.018433  -0.000000
    63  N   -0.146269   0.000000
    64  C    0.119582  -0.000000
    65  C   -0.208234  -0.000000
    66  S    0.184001   0.000000
    67  C   -0.039695   0.000000
    68  C    0.119109  -0.000000
    69  N   -0.153093   0.000000
    70  C    0.177724  -0.000000
    71  N   -0.195416   0.000000
    72  C    0.128270  -0.000000
    73  C   -0.037607   0.000000
    74  N   -0.150947   0.000000
    75  C    0.119460  -0.000000
    76  C   -0.155297   0.000000
    77  S    0.185650  -0.000000
    78  H    0.000092  -0.000000
    79  H    0.013954  -0.000000
    80  H    0.014283  -0.000000
    81  H    0.006020   0.000000
    82  H    0.012591   0.000000
    83  H    0.008478   0.000000
    84  H    0.007810   0.000000
    85  H    0.008702  -0.000000
    86  H    0.012748   0.000000
    87  H    0.006334   0.000000
    88  H    0.008489  -0.000000
    89  H    0.012770   0.000000
    90  H    0.007771   0.000000
    91  H    0.008455   0.000000
    92  H    0.012428   0.000000
    93  H    0.006216   0.000000
    94  H    0.011857  -0.000000
    95  H    0.008044  -0.000000
    96  H    0.005175   0.000000
    97  H    0.010392  -0.000000
    98  H    0.006318  -0.000000
    99  H    0.001717   0.000000
   100  H    0.025465   0.000000
 Sum of Mulliken charges =  -0.00000  -0.00000

 Dipole moment (field-independent basis, Debye):
    X=             11.1695    Y=             -0.5483    Z=              0.4723  Tot=             11.1929
 Quadrupole moment (field-independent basis, Debye-Ang):
   XX=           -277.1687   YY=           -490.9084   ZZ=           -482.2764
   XY=             36.9342   XZ=             36.3331   YZ=              2.1333

 Normal termination of Gaussian 16 at Fri Jul 24 04:00:32 2020.
