 Gaussian 16, Revision A.03,
 Gaussian 16:  EM64L-G16RevA.03 25-Dec-2016

 ---------------------------------------------------------------
 #P uLC-wPBE/cc-pVDZ iop(3/107=0466300000, 3/108=0466300000) opt
 ---------------------------------------------------------------

 --------------
 H6 C9 S1 N1 F1
 --------------
 Symbolic Z-matrix:
 Charge =  0 Multiplicity = 1

 SCF Done:  E(ULC-wPBE) =  -898.865733123     A.U. after   16 cycles
 SCF Done:  E(ULC-wPBE) =  -898.899411667     A.U. after   15 cycles
 SCF Done:  E(ULC-wPBE) =  -898.906513112     A.U. after   15 cycles
 SCF Done:  E(ULC-wPBE) =  -898.906868288     A.U. after   13 cycles
 SCF Done:  E(ULC-wPBE) =  -898.906919650     A.U. after   13 cycles
 SCF Done:  E(ULC-wPBE) =  -898.906948238     A.U. after   12 cycles
 SCF Done:  E(ULC-wPBE) =  -898.906954282     A.U. after   10 cycles
 SCF Done:  E(ULC-wPBE) =  -898.906955247     A.U. after    9 cycles
 SCF Done:  E(ULC-wPBE) =  -898.906955596     A.U. after    9 cycles
 SCF Done:  E(ULC-wPBE) =  -898.906956853     A.U. after   11 cycles
 SCF Done:  E(ULC-wPBE) =  -898.907018266     A.U. after    9 cycles
 SCF Done:  E(ULC-wPBE) =  -898.906923780     A.U. after   13 cycles
 SCF Done:  E(ULC-wPBE) =  -898.906949722     A.U. after   14 cycles
 SCF Done:  E(ULC-wPBE) =  -898.907023963     A.U. after   13 cycles
 SCF Done:  E(ULC-wPBE) =  -898.907049323     A.U. after   13 cycles
 SCF Done:  E(ULC-wPBE) =  -898.905967427     A.U. after   15 cycles
 SCF Done:  E(ULC-wPBE) =  -898.906969115     A.U. after   13 cycles
 SCF Done:  E(ULC-wPBE) =  -898.907053389     A.U. after    8 cycles
 SCF Done:  E(ULC-wPBE) =  -898.907065023     A.U. after   12 cycles
 SCF Done:  E(ULC-wPBE) =  -898.907065114     A.U. after   10 cycles
 Optimization completed.
    -- Stationary point found.

                         Standard orientation:
 ---------------------------------------------------------------------
 Center     Atomic      Atomic             Coordinates (Angstroms)
 Number     Number       Type             X           Y           Z
 ---------------------------------------------------------------------
      1          6           0        3.539154   -0.000172    0.030917
      2          6           0        2.905078   -1.194538   -0.265583
      3          6           0        1.524290   -1.231233   -0.286103
      4          6           0        0.816663   -0.065821    0.004547
      5          7           0        1.422613    1.083655    0.290755
      6          6           0        2.746681    1.104772    0.295181
      7          6           0       -0.653785   -0.050120    0.006163
      8          6           0       -1.495519    1.014542   -0.110847
      9          9           0       -1.103215    2.269827   -0.273426
     10          6           0       -2.875892    0.688238   -0.073203
     11          6           0       -3.060901   -0.644636    0.077828
     12         16           0       -1.583964   -1.493147    0.175151
     13          1           0        4.623618    0.078355    0.055534
     14          1           0        3.480946   -2.091741   -0.487074
     15          1           0        0.998478   -2.150886   -0.535268
     16          1           0        3.204966    2.067247    0.530108
     17          1           0       -3.666286    1.427282   -0.158696
     18          1           0       -4.002258   -1.180131    0.145118
 ---------------------------------------------------------------------

 The electronic state is 1-A.
 Alpha  occ. eigenvalues --  -88.36500 -24.53147 -14.24878 -10.24529 -10.21474
 Alpha  occ. eigenvalues --  -10.19961 -10.19533 -10.19110 -10.18353 -10.17143
 Alpha  occ. eigenvalues --  -10.17061 -10.16820  -7.97435  -5.98665  -5.98121
 Alpha  occ. eigenvalues --   -5.97686  -1.38175  -1.13570  -1.08409  -0.98775
 Alpha  occ. eigenvalues --   -0.96742  -0.91298  -0.89844  -0.80221  -0.79837
 Alpha  occ. eigenvalues --   -0.73854  -0.72467  -0.69894  -0.65214  -0.63187
 Alpha  occ. eigenvalues --   -0.61804  -0.61219  -0.59646  -0.58005  -0.56366
 Alpha  occ. eigenvalues --   -0.54857  -0.54209  -0.52085  -0.50711  -0.49372
 Alpha  occ. eigenvalues --   -0.47606  -0.41839  -0.40220  -0.38535  -0.36498
 Alpha  occ. eigenvalues --   -0.33007
 Alpha virt. eigenvalues --    0.03167   0.06316   0.10332   0.13127   0.16362
 Alpha virt. eigenvalues --    0.17447   0.17827   0.19752   0.20239   0.22308
 Alpha virt. eigenvalues --    0.23377   0.25731   0.27605   0.29332   0.33615

  Beta  occ. eigenvalues --  -88.36500 -24.53147 -14.24878 -10.24529 -10.21474
  Beta  occ. eigenvalues --  -10.19961 -10.19533 -10.19110 -10.18353 -10.17143
  Beta  occ. eigenvalues --  -10.17061 -10.16820  -7.97435  -5.98665  -5.98121
  Beta  occ. eigenvalues --   -5.97686  -1.38175  -1.13570  -1.08409  -0.98775
  Beta  occ. eigenvalues --   -0.96742  -0.91298  -0.89844  -0.80221  -0.79837
  Beta  occ. eigenvalues --   -0.73854  -0.72467  -0.69894  -0.65214  -0.63187
  Beta  occ. eigenvalues --   -0.61804  -0.61219  -0.59646  -0.58005  -0.56366
  Beta  occ. eigenvalues --   -0.54857  -0.54209  -0.52085  -0.50711  -0.49372
  Beta  occ. eigenvalues --   -0.47606  -0.41839  -0.40220  -0.38535  -0.36498
  Beta  occ. eigenvalues --   -0.33007
  Beta virt. eigenvalues --    0.03167   0.06316   0.10332   0.13127   0.16362
  Beta virt. eigenvalues --    0.17447   0.17827   0.19752   0.20239   0.22308
  Beta virt. eigenvalues --    0.23377   0.25731   0.27605   0.29332   0.33615

 Mulliken charges and spin densities:
               1          2
     1  C   -0.074973  -0.000000
     2  C    0.050703   0.000000
     3  C   -0.042929  -0.000000
     4  C    0.119139   0.000000
     5  N   -0.203086  -0.000000
     6  C    0.081646  -0.000000
     7  C   -0.208494  -0.000000
     8  C    0.140120   0.000000
     9  F   -0.108167   0.000000
    10  C    0.024212  -0.000000
    11  C   -0.139284   0.000000
    12  S    0.161900  -0.000000
    13  H    0.022338  -0.000000
    14  H    0.025866  -0.000000
    15  H    0.028698  -0.000000
    16  H    0.031354   0.000000
    17  H    0.032829   0.000000
    18  H    0.058128  -0.000000
 Sum of Mulliken charges =  -0.00000   0.00000

 Dipole moment (field-independent basis, Debye):
    X=              0.2480    Y=             -2.0668    Z=             -0.3318  Tot=              2.1079
 Quadrupole moment (field-independent basis, Debye-Ang):
   XX=            -55.2593   YY=            -72.9838   ZZ=            -77.8053
   XY=             -0.6151   XZ=             -0.3949   YZ=              0.8621

 Normal termination of Gaussian 16 at Fri Jul 24 15:51:55 2020.
