 Gaussian 16, Revision A.03,
 Gaussian 16:  EM64L-G16RevA.03 25-Dec-2016

 ---------------------------------------------------------------
 #P uLC-wPBE/cc-pVDZ iop(3/107=0459100000, 3/108=0459100000) opt
 ---------------------------------------------------------------

 -------------
 H12 C12 N2 O2
 -------------
 Symbolic Z-matrix:
 Charge =  0 Multiplicity = 1

 SCF Done:  E(ULC-wPBE) =  -723.907672820     A.U. after   16 cycles
 SCF Done:  E(ULC-wPBE) =  -723.953608406     A.U. after   14 cycles
 SCF Done:  E(ULC-wPBE) =  -723.969695678     A.U. after   15 cycles
 SCF Done:  E(ULC-wPBE) =  -723.970605067     A.U. after   14 cycles
 SCF Done:  E(ULC-wPBE) =  -723.970764529     A.U. after   13 cycles
 SCF Done:  E(ULC-wPBE) =  -723.970841517     A.U. after   13 cycles
 SCF Done:  E(ULC-wPBE) =  -723.970887434     A.U. after   13 cycles
 SCF Done:  E(ULC-wPBE) =  -723.970919716     A.U. after   12 cycles
 SCF Done:  E(ULC-wPBE) =  -723.970941251     A.U. after   13 cycles
 SCF Done:  E(ULC-wPBE) =  -723.970945569     A.U. after   10 cycles
 SCF Done:  E(ULC-wPBE) =  -723.970946631     A.U. after   10 cycles
 SCF Done:  E(ULC-wPBE) =  -723.970946737     A.U. after    9 cycles
 Optimization completed.
    -- Stationary point found.

                         Standard orientation:
 ---------------------------------------------------------------------
 Center     Atomic      Atomic             Coordinates (Angstroms)
 Number     Number       Type             X           Y           Z
 ---------------------------------------------------------------------
      1          6           0        3.402329   -0.805047    0.604441
      2          6           0        2.909196    0.238572   -0.168610
      3          6           0        1.549136    0.287461   -0.414861
      4          8           0        0.927679    1.223808   -1.160832
      5          6           0        1.709558    2.250155   -1.709676
      6          6           0        0.735011   -0.716429    0.131067
      7          7           0        1.214586   -1.706015    0.857707
      8          6           0        2.524285   -1.749760    1.091356
      9          6           0       -0.735025   -0.716496   -0.130896
     10          7           0       -1.214406   -1.705750   -0.858106
     11          6           0       -2.524074   -1.749516   -1.091885
     12          6           0       -3.402275   -0.805183   -0.604491
     13          6           0       -2.909369    0.238061    0.169145
     14          6           0       -1.549311    0.286965    0.415518
     15          8           0       -0.928011    1.222802    1.162282
     16          6           0       -1.709406    2.250969    1.708434
     17          1           0        4.466986   -0.876772    0.818869
     18          1           0        3.586086    0.989195   -0.569075
     19          1           0        2.467815    1.856361   -2.401885
     20          1           0        2.206894    2.842224   -0.927711
     21          1           0        1.025007    2.896506   -2.265031
     22          1           0        2.878472   -2.583713    1.698734
     23          1           0       -2.878084   -2.583184   -1.699734
     24          1           0       -4.466911   -0.876985   -0.818988
     25          1           0       -3.586374    0.988366    0.570017
     26          1           0       -1.024679    2.897937    2.262856
     27          1           0       -2.468410    1.859316    2.401050
     28          1           0       -2.205735    2.841708    0.924840
 ---------------------------------------------------------------------

 The electronic state is 1-A.
 Alpha  occ. eigenvalues --  -19.04435 -19.04433 -14.23539 -14.23537 -10.21584
 Alpha  occ. eigenvalues --  -10.21584 -10.20914 -10.20913 -10.18285 -10.18266
 Alpha  occ. eigenvalues --  -10.16998 -10.16997 -10.16397 -10.16397 -10.15736
 Alpha  occ. eigenvalues --  -10.15736  -1.24676  -1.24076  -1.12478  -1.10397
 Alpha  occ. eigenvalues --   -0.97457  -0.96928  -0.96050  -0.92027  -0.87401
 Alpha  occ. eigenvalues --   -0.86477  -0.81267  -0.76654  -0.75974  -0.75480
 Alpha  occ. eigenvalues --   -0.69504  -0.67691  -0.65642  -0.64651  -0.64474
 Alpha  occ. eigenvalues --   -0.62391  -0.61842  -0.60946  -0.57275  -0.56962
 Alpha  occ. eigenvalues --   -0.56743  -0.55447  -0.54427  -0.54269  -0.53164
 Alpha  occ. eigenvalues --   -0.51556  -0.50238  -0.47356  -0.47125  -0.46323
 Alpha  occ. eigenvalues --   -0.45874  -0.39889  -0.38916  -0.37988  -0.36538
 Alpha  occ. eigenvalues --   -0.33793  -0.32359
 Alpha virt. eigenvalues --    0.05906   0.07851   0.09614   0.10281   0.15554
 Alpha virt. eigenvalues --    0.16115   0.17986   0.18635   0.20998   0.21119
 Alpha virt. eigenvalues --    0.22887   0.23035   0.23111   0.23301   0.24208

  Beta  occ. eigenvalues --  -19.04435 -19.04433 -14.23539 -14.23537 -10.21584
  Beta  occ. eigenvalues --  -10.21584 -10.20914 -10.20913 -10.18285 -10.18266
  Beta  occ. eigenvalues --  -10.16998 -10.16997 -10.16397 -10.16397 -10.15736
  Beta  occ. eigenvalues --  -10.15736  -1.24676  -1.24076  -1.12478  -1.10397
  Beta  occ. eigenvalues --   -0.97457  -0.96928  -0.96050  -0.92027  -0.87401
  Beta  occ. eigenvalues --   -0.86477  -0.81267  -0.76654  -0.75974  -0.75480
  Beta  occ. eigenvalues --   -0.69504  -0.67691  -0.65642  -0.64651  -0.64474
  Beta  occ. eigenvalues --   -0.62391  -0.61842  -0.60946  -0.57275  -0.56962
  Beta  occ. eigenvalues --   -0.56743  -0.55447  -0.54427  -0.54269  -0.53164
  Beta  occ. eigenvalues --   -0.51556  -0.50238  -0.47356  -0.47125  -0.46323
  Beta  occ. eigenvalues --   -0.45874  -0.39889  -0.38916  -0.37988  -0.36538
  Beta  occ. eigenvalues --   -0.33793  -0.32359
  Beta virt. eigenvalues --    0.05906   0.07851   0.09614   0.10281   0.15554
  Beta virt. eigenvalues --    0.16115   0.17986   0.18635   0.20998   0.21119
  Beta virt. eigenvalues --    0.22887   0.23035   0.23111   0.23301   0.24208

 Mulliken charges and spin densities:
               1          2
     1  C   -0.062241  -0.000000
     2  C   -0.018647   0.000000
     3  C    0.132057  -0.000000
     4  O   -0.253912   0.000000
     5  C    0.033340  -0.000000
     6  C    0.049836  -0.000000
     7  N   -0.177231  -0.000000
     8  C    0.066711   0.000000
     9  C    0.049834   0.000000
    10  N   -0.177229   0.000000
    11  C    0.066702  -0.000000
    12  C   -0.062236   0.000000
    13  C   -0.018613  -0.000000
    14  C    0.132047  -0.000000
    15  O   -0.253911   0.000000
    16  C    0.033352   0.000000
    17  H    0.016779  -0.000000
    18  H    0.020810  -0.000000
    19  H    0.053664  -0.000000
    20  H    0.050978  -0.000000
    21  H    0.066886   0.000000
    22  H    0.020960  -0.000000
    23  H    0.020953  -0.000000
    24  H    0.016778   0.000000
    25  H    0.020811  -0.000000
    26  H    0.066885  -0.000000
    27  H    0.053655  -0.000000
    28  H    0.050981   0.000000
 Sum of Mulliken charges =  -0.00000  -0.00000

 Dipole moment (field-independent basis, Debye):
    X=              0.0002    Y=              4.8213    Z=             -0.0025  Tot=              4.8213
 Quadrupole moment (field-independent basis, Debye-Ang):
   XX=            -71.5497   YY=            -87.7605   ZZ=            -90.1354
   XY=             -0.0004   XZ=             -2.6942   YZ=             -0.0023

 Normal termination of Gaussian 16 at Sun Jul 26 12:47:57 2020.
