 Gaussian 16, Revision A.03,
 Gaussian 16:  EM64L-G16RevA.03 25-Dec-2016

 ---------------------------------------------------------------
 #P uLC-wPBE/cc-pVDZ iop(3/107=0109500000, 3/108=0109500000) opt
 ---------------------------------------------------------------

 -------------
 H47 C60 N5 O5
 -------------
 Symbolic Z-matrix:
 Charge =  0 Multiplicity = 1

 SCF Done:  E(ULC-wPBE) =  -2961.52257096     A.U. after   16 cycles
 SCF Done:  E(ULC-wPBE) =  -2961.60369205     A.U. after   14 cycles
 SCF Done:  E(ULC-wPBE) =  -2961.67709398     A.U. after   16 cycles
 SCF Done:  E(ULC-wPBE) =  -2961.69976141     A.U. after   15 cycles
 SCF Done:  E(ULC-wPBE) =  -2961.71105644     A.U. after   16 cycles
 SCF Done:  E(ULC-wPBE) =  -2961.71648849     A.U. after   16 cycles
 SCF Done:  E(ULC-wPBE) =  -2961.71906495     A.U. after   18 cycles
 SCF Done:  E(ULC-wPBE) =  -2961.71985993     A.U. after   14 cycles
 SCF Done:  E(ULC-wPBE) =  -2961.72019938     A.U. after   13 cycles
 SCF Done:  E(ULC-wPBE) =  -2961.72030609     A.U. after   13 cycles
 SCF Done:  E(ULC-wPBE) =  -2961.72044622     A.U. after   11 cycles
 SCF Done:  E(ULC-wPBE) =  -2961.72044640     A.U. after   10 cycles
 SCF Done:  E(ULC-wPBE) =  -2961.72044661     A.U. after    7 cycles
 SCF Done:  E(ULC-wPBE) =  -2961.72044674     A.U. after    6 cycles
 SCF Done:  E(ULC-wPBE) =  -2961.72044691     A.U. after    7 cycles
 SCF Done:  E(ULC-wPBE) =  -2961.72044683     A.U. after    7 cycles
 SCF Done:  E(ULC-wPBE) =  -2961.72044680     A.U. after    6 cycles
 SCF Done:  E(ULC-wPBE) =  -2961.72044688     A.U. after    6 cycles
 SCF Done:  E(ULC-wPBE) =  -2961.72044685     A.U. after    7 cycles
 SCF Done:  E(ULC-wPBE) =  -2961.72044683     A.U. after    5 cycles
 Optimization completed.
    -- Stationary point found.

                         Standard orientation:
 ---------------------------------------------------------------------
 Center     Atomic      Atomic             Coordinates (Angstroms)
 Number     Number       Type             X           Y           Z
 ---------------------------------------------------------------------
      1          6           0       20.878071   -1.216856    0.362659
      2          6           0       20.357919   -0.383848    1.360719
      3          6           0       18.991989   -0.080413    1.353437
      4          6           0       18.173470   -0.623392    0.337024
      5          7           0       18.674382   -1.443225   -0.620244
      6          6           0       19.986532   -1.720175   -0.595907
      7          6           0       16.700223   -0.389318    0.266168
      8          6           0       15.900962   -1.337456   -0.411153
      9          6           0       14.514739   -1.211336   -0.502458
     10          6           0       13.848943   -0.112358    0.084920
     11          6           0       14.637050    0.850188    0.745138
     12          6           0       16.029836    0.721299    0.836591
     13          8           0       16.716613    1.710775    1.532285
     14          6           0       17.142286    2.793944    0.695442
     15          6           0       12.375304    0.025314    0.012944
     16          6           0       11.732446    1.271765   -0.109899
     17          6           0       10.339624    1.341512   -0.183435
     18          6           0        9.580401    0.150272   -0.136279
     19          7           0       10.189607   -1.054379    0.007534
     20          6           0       11.523241   -1.100300    0.078215
     21          6           0        8.089918    0.100725   -0.188104
     22          6           0        7.450352   -1.064577    0.283030
     23          6           0        6.063266   -1.216651    0.279742
     24          6           0        5.238992   -0.187079   -0.215654
     25          6           0        5.855093    0.982294   -0.707260
     26          6           0        7.252590    1.135175   -0.698869
     27          8           0        7.868071    2.254771   -1.198933
     28          6           0        7.054440    3.268387   -1.783170
     29          6           0        3.763094   -0.320290   -0.224610
     30          6           0        3.117061   -1.545422   -0.478003
     31          6           0        1.722608   -1.621626   -0.466723
     32          6           0        0.963768   -0.458166   -0.205010
     33          7           0        1.577194    0.729080    0.035260
     34          6           0        2.912541    0.779611    0.027516
     35          6           0       -0.528122   -0.406817   -0.211421
     36          6           0       -1.144989    0.855047   -0.338469
     37          6           0       -2.530485    1.018839   -0.360310
     38          6           0       -3.377583   -0.100643   -0.241786
     39          6           0       -2.786036   -1.372349   -0.098578
     40          6           0       -1.389454   -1.535169   -0.079678
     41          8           0       -0.800678   -2.764737    0.069826
     42          6           0       -1.641943   -3.895699    0.281539
     43          6           0       -4.852411    0.045909   -0.261801
     44          6           0       -5.504280    0.991622   -1.077700
     45          6           0       -6.896632    1.096466   -1.055058
     46          6           0       -7.641236    0.242382   -0.210754
     47          7           0       -7.027293   -0.677110    0.574937
     48          6           0       -5.692312   -0.755661    0.543721
     49          6           0       -9.131808    0.239746   -0.153527
     50          6           0       -9.785968   -0.928138    0.300040
     51          6           0      -11.176016   -1.026560    0.358753
     52          6           0      -11.994741    0.054917   -0.036932
     53          6           0      -11.354262    1.231520   -0.471606
     54          6           0       -9.957206    1.328944   -0.529561
     55          8           0       -9.420423    2.524104   -0.996635
     56          6           0       -9.184699    3.479614    0.045739
     57          6           0      -13.472870   -0.042008    0.000588
     58          6           0      -14.299361    1.050025    0.327030
     59          6           0      -15.687233    0.898286    0.356696
     60          6           0      -16.256033   -0.360930    0.059226
     61          7           0      -15.469046   -1.412954   -0.281721
     62          6           0      -14.143078   -1.247478   -0.306711
     63          6           0      -17.723777   -0.636908    0.040726
     64          6           0      -18.172756   -1.758319   -0.687887
     65          6           0      -19.524426   -2.106328   -0.770903
     66          6           0      -20.474322   -1.325813   -0.101727
     67          6           0      -20.067452   -0.212291    0.645149
     68          6           0      -18.705884    0.138575    0.723626
     69          8           0      -18.264099    1.209932    1.460020
     70          6           0      -19.220884    1.944948    2.216826
     71          1           0       21.944704   -1.478809    0.327694
     72          1           0       21.008990    0.025384    2.147081
     73          1           0       18.548088    0.562340    2.122394
     74          1           0       20.348537   -2.388917   -1.395325
     75          1           0       16.421132   -2.182722   -0.880860
     76          1           0       13.938684   -1.966304   -1.055755
     77          1           0       14.175159    1.715582    1.241319
     78          1           0       17.639342    3.527628    1.357192
     79          1           0       16.275351    3.278704    0.194420
     80          1           0       17.861446    2.451935   -0.081437
     81          1           0       12.327453    2.195147   -0.169036
     82          1           0        9.837337    2.308432   -0.282940
     83          1           0       11.958362   -2.104512    0.219017
     84          1           0        8.102593   -1.862700    0.660374
     85          1           0        5.614325   -2.130313    0.693314
     86          1           0        5.224014    1.770176   -1.135154
     87          1           0        7.754205    4.048736   -2.131995
     88          1           0        6.475934    2.881199   -2.649576
     89          1           0        6.351017    3.711203   -1.044845
     90          1           0        3.710651   -2.441352   -0.712111
     91          1           0        1.218058   -2.569444   -0.676464
     92          1           0        3.352185    1.764196    0.263379
     93          1           0       -0.474938    1.721937   -0.405099
     94          1           0       -2.959025    2.027528   -0.440215
     95          1           0       -3.436655   -2.252270   -0.030857
     96          1           0       -0.959747   -4.753547    0.418985
     97          1           0       -2.301740   -4.089983   -0.591858
     98          1           0       -2.268445   -3.775242    1.191525
     99          1           0       -4.917958    1.629050   -1.755762
    100          1           0       -7.418251    1.816381   -1.696160
    101          1           0       -5.243940   -1.496905    1.227442
    102          1           0       -9.149034   -1.762748    0.621600
    103          1           0      -11.636947   -1.950026    0.736489
    104          1           0      -11.936679    2.098809   -0.813728
    105          1           0       -8.435487    3.107498    0.779144
    106          1           0      -10.125771    3.724662    0.585990
    107          1           0       -8.796151    4.391876   -0.444230
    108          1           0      -13.852633    2.022941    0.580243
    109          1           0      -16.332035    1.744025    0.614030
    110          1           0      -13.558796   -2.131520   -0.614602
    111          1           0      -17.400855   -2.358268   -1.187199
    112          1           0      -19.832622   -2.983672   -1.356075
    113          1           0      -21.543465   -1.577684   -0.152819
    114          1           0      -20.821287    0.385082    1.171925
    115          1           0      -19.740738    1.300135    2.958175
    116          1           0      -18.646431    2.723315    2.750510
    117          1           0      -19.978719    2.432678    1.565426
 ---------------------------------------------------------------------

 The electronic state is 1-A.
 Alpha  occ. eigenvalues --  -18.87281 -18.87220 -18.86916 -18.85160 -18.85060
 Alpha  occ. eigenvalues --  -14.05749 -14.05745 -14.05476 -14.05438 -14.05215
 Alpha  occ. eigenvalues --  -10.02806 -10.02714 -10.02369 -10.02350 -10.02316
 Alpha  occ. eigenvalues --  -10.02171 -10.01916 -10.01806 -10.01378 -10.01273
 Alpha  occ. eigenvalues --  -10.00580 -10.00416 -10.00252 -10.00236 -10.00002
 Alpha  occ. eigenvalues --   -9.99565  -9.99483  -9.99265  -9.99228  -9.99032
 Alpha  occ. eigenvalues --   -9.98174  -9.98084  -9.98046  -9.98022  -9.97960
 Alpha  occ. eigenvalues --   -9.97898  -9.97895  -9.97833  -9.97778  -9.97742
 Alpha  occ. eigenvalues --   -9.97642  -9.97638  -9.97558  -9.97502  -9.97414
 Alpha  occ. eigenvalues --   -9.97333  -9.97276  -9.97172  -9.96949  -9.96838
 Alpha  occ. eigenvalues --   -9.96822  -9.96681  -9.96673  -9.96614  -9.96574
 Alpha  occ. eigenvalues --   -9.96563  -9.96561  -9.96501  -9.96498  -9.96401
 Alpha  occ. eigenvalues --   -9.96389  -9.96382  -9.96284  -9.96231  -9.96110
 Alpha  occ. eigenvalues --   -9.96028  -9.96009  -9.95889  -9.95610  -9.95445
 Alpha  occ. eigenvalues --   -1.04998  -1.04931  -1.04621  -1.02961  -1.02858
 Alpha  occ. eigenvalues --   -0.92299  -0.92249  -0.92067  -0.92037  -0.91820
 Alpha  occ. eigenvalues --   -0.84945  -0.84798  -0.84560  -0.84345  -0.83472
 Alpha  occ. eigenvalues --   -0.80695  -0.80282  -0.79803  -0.79561  -0.78975
 Alpha  occ. eigenvalues --   -0.77653  -0.77463  -0.77250  -0.76831  -0.76175
 Alpha  occ. eigenvalues --   -0.74969  -0.74665  -0.74525  -0.74319  -0.74119
 Alpha  occ. eigenvalues --   -0.74075  -0.73481  -0.72497  -0.71504  -0.71088
 Alpha  occ. eigenvalues --   -0.70032  -0.69429  -0.69188  -0.68573  -0.68382
 Alpha  occ. eigenvalues --   -0.66164  -0.65103  -0.64135  -0.63710  -0.63431
 Alpha  occ. eigenvalues --   -0.63236  -0.63051  -0.62820  -0.62363  -0.61324
 Alpha  occ. eigenvalues --   -0.60424  -0.60008  -0.59833  -0.59224  -0.58927
 Alpha  occ. eigenvalues --   -0.58852  -0.58599  -0.58473  -0.58126  -0.57939
 Alpha  occ. eigenvalues --   -0.55047  -0.54782  -0.54606  -0.54144  -0.53878
 Alpha  occ. eigenvalues --   -0.52460  -0.51958  -0.51879  -0.51634  -0.51192
 Alpha  occ. eigenvalues --   -0.51082  -0.50748  -0.50215  -0.49624  -0.49515
 Alpha  occ. eigenvalues --   -0.49198  -0.49047  -0.48857  -0.48644  -0.48398
 Alpha  occ. eigenvalues --   -0.48379  -0.48131  -0.47942  -0.47718  -0.47622
 Alpha  occ. eigenvalues --   -0.47459  -0.47294  -0.47217  -0.46919  -0.46913
 Alpha  occ. eigenvalues --   -0.46264  -0.45578  -0.45448  -0.45317  -0.44957
 Alpha  occ. eigenvalues --   -0.44711  -0.44594  -0.44389  -0.44236  -0.44165
 Alpha  occ. eigenvalues --   -0.43846  -0.43617  -0.43258  -0.42840  -0.42710
 Alpha  occ. eigenvalues --   -0.42548  -0.42501  -0.42419  -0.42260  -0.42188
 Alpha  occ. eigenvalues --   -0.42069  -0.41960  -0.41679  -0.41447  -0.41224
 Alpha  occ. eigenvalues --   -0.40893  -0.40363  -0.40069  -0.39897  -0.39696
 Alpha  occ. eigenvalues --   -0.39459  -0.39361  -0.39234  -0.39025  -0.38774
 Alpha  occ. eigenvalues --   -0.38479  -0.38336  -0.38124  -0.37958  -0.37929
 Alpha  occ. eigenvalues --   -0.37838  -0.37006  -0.36806  -0.36721  -0.36533
 Alpha  occ. eigenvalues --   -0.36300  -0.35807  -0.35713  -0.35337  -0.35143
 Alpha  occ. eigenvalues --   -0.34500  -0.34167  -0.33943  -0.33705  -0.33520
 Alpha  occ. eigenvalues --   -0.33096  -0.32328  -0.31763  -0.31414  -0.30892
 Alpha  occ. eigenvalues --   -0.30839  -0.30631  -0.30439  -0.29887  -0.28820
 Alpha  occ. eigenvalues --   -0.28730  -0.28280  -0.28007  -0.27806  -0.27194
 Alpha  occ. eigenvalues --   -0.27011  -0.27003  -0.26881  -0.26843  -0.26666
 Alpha  occ. eigenvalues --   -0.26501  -0.25903  -0.25715  -0.24873  -0.24018
 Alpha  occ. eigenvalues --   -0.23330
 Alpha virt. eigenvalues --   -0.04404  -0.03563  -0.02329  -0.01071  -0.00354
 Alpha virt. eigenvalues --    0.00025   0.00075   0.00379   0.00575   0.01031
 Alpha virt. eigenvalues --    0.01817   0.01920   0.02625   0.02766   0.02988

  Beta  occ. eigenvalues --  -18.87281 -18.87220 -18.86916 -18.85160 -18.85060
  Beta  occ. eigenvalues --  -14.05749 -14.05745 -14.05476 -14.05438 -14.05215
  Beta  occ. eigenvalues --  -10.02806 -10.02714 -10.02369 -10.02350 -10.02316
  Beta  occ. eigenvalues --  -10.02171 -10.01916 -10.01806 -10.01378 -10.01273
  Beta  occ. eigenvalues --  -10.00580 -10.00416 -10.00252 -10.00236 -10.00002
  Beta  occ. eigenvalues --   -9.99565  -9.99483  -9.99265  -9.99228  -9.99032
  Beta  occ. eigenvalues --   -9.98174  -9.98084  -9.98046  -9.98022  -9.97960
  Beta  occ. eigenvalues --   -9.97898  -9.97895  -9.97833  -9.97778  -9.97742
  Beta  occ. eigenvalues --   -9.97642  -9.97638  -9.97558  -9.97502  -9.97414
  Beta  occ. eigenvalues --   -9.97333  -9.97276  -9.97172  -9.96949  -9.96838
  Beta  occ. eigenvalues --   -9.96822  -9.96681  -9.96673  -9.96614  -9.96574
  Beta  occ. eigenvalues --   -9.96563  -9.96561  -9.96501  -9.96498  -9.96401
  Beta  occ. eigenvalues --   -9.96389  -9.96382  -9.96284  -9.96231  -9.96110
  Beta  occ. eigenvalues --   -9.96028  -9.96009  -9.95889  -9.95610  -9.95445
  Beta  occ. eigenvalues --   -1.04998  -1.04931  -1.04621  -1.02961  -1.02858
  Beta  occ. eigenvalues --   -0.92299  -0.92249  -0.92067  -0.92037  -0.91820
  Beta  occ. eigenvalues --   -0.84945  -0.84798  -0.84560  -0.84345  -0.83472
  Beta  occ. eigenvalues --   -0.80695  -0.80282  -0.79803  -0.79561  -0.78975
  Beta  occ. eigenvalues --   -0.77653  -0.77463  -0.77250  -0.76831  -0.76175
  Beta  occ. eigenvalues --   -0.74969  -0.74665  -0.74525  -0.74319  -0.74119
  Beta  occ. eigenvalues --   -0.74075  -0.73481  -0.72497  -0.71504  -0.71088
  Beta  occ. eigenvalues --   -0.70032  -0.69429  -0.69188  -0.68573  -0.68382
  Beta  occ. eigenvalues --   -0.66164  -0.65103  -0.64135  -0.63710  -0.63431
  Beta  occ. eigenvalues --   -0.63236  -0.63051  -0.62820  -0.62363  -0.61324
  Beta  occ. eigenvalues --   -0.60424  -0.60008  -0.59833  -0.59224  -0.58927
  Beta  occ. eigenvalues --   -0.58852  -0.58599  -0.58473  -0.58126  -0.57939
  Beta  occ. eigenvalues --   -0.55047  -0.54782  -0.54606  -0.54144  -0.53878
  Beta  occ. eigenvalues --   -0.52460  -0.51958  -0.51879  -0.51634  -0.51192
  Beta  occ. eigenvalues --   -0.51082  -0.50748  -0.50215  -0.49624  -0.49515
  Beta  occ. eigenvalues --   -0.49198  -0.49047  -0.48857  -0.48644  -0.48398
  Beta  occ. eigenvalues --   -0.48379  -0.48131  -0.47942  -0.47718  -0.47622
  Beta  occ. eigenvalues --   -0.47459  -0.47294  -0.47217  -0.46919  -0.46913
  Beta  occ. eigenvalues --   -0.46264  -0.45578  -0.45448  -0.45317  -0.44957
  Beta  occ. eigenvalues --   -0.44711  -0.44594  -0.44389  -0.44236  -0.44165
  Beta  occ. eigenvalues --   -0.43846  -0.43617  -0.43258  -0.42840  -0.42710
  Beta  occ. eigenvalues --   -0.42548  -0.42501  -0.42419  -0.42260  -0.42188
  Beta  occ. eigenvalues --   -0.42069  -0.41960  -0.41679  -0.41447  -0.41224
  Beta  occ. eigenvalues --   -0.40893  -0.40363  -0.40069  -0.39897  -0.39696
  Beta  occ. eigenvalues --   -0.39459  -0.39361  -0.39234  -0.39025  -0.38774
  Beta  occ. eigenvalues --   -0.38479  -0.38336  -0.38124  -0.37958  -0.37929
  Beta  occ. eigenvalues --   -0.37838  -0.37006  -0.36806  -0.36721  -0.36533
  Beta  occ. eigenvalues --   -0.36300  -0.35807  -0.35713  -0.35337  -0.35143
  Beta  occ. eigenvalues --   -0.34500  -0.34167  -0.33943  -0.33705  -0.33520
  Beta  occ. eigenvalues --   -0.33096  -0.32328  -0.31763  -0.31414  -0.30892
  Beta  occ. eigenvalues --   -0.30839  -0.30631  -0.30439  -0.29887  -0.28820
  Beta  occ. eigenvalues --   -0.28730  -0.28280  -0.28007  -0.27806  -0.27194
  Beta  occ. eigenvalues --   -0.27011  -0.27003  -0.26881  -0.26843  -0.26666
  Beta  occ. eigenvalues --   -0.26501  -0.25903  -0.25715  -0.24873  -0.24018
  Beta  occ. eigenvalues --   -0.23330
  Beta virt. eigenvalues --   -0.04404  -0.03563  -0.02329  -0.01071  -0.00354
  Beta virt. eigenvalues --    0.00025   0.00075   0.00379   0.00575   0.01031
  Beta virt. eigenvalues --    0.01817   0.01920   0.02625   0.02766   0.02988

 Mulliken charges and spin densities:
               1          2
     1  C   -0.024657   0.000000
     2  C    0.074378   0.000000
     3  C    0.007834  -0.000000
     4  C    0.044980   0.000000
     5  N   -0.195193   0.000000
     6  C    0.089792  -0.000000
     7  C    0.059258  -0.000000
     8  C    0.051041   0.000000
     9  C    0.013547  -0.000000
    10  C    0.042323  -0.000000
    11  C    0.053928   0.000000
    12  C   -0.019299   0.000000
    13  O   -0.266195   0.000000
    14  C    0.073167  -0.000000
    15  C   -0.031208   0.000000
    16  C    0.066132  -0.000000
    17  C    0.027296   0.000000
    18  C    0.090860  -0.000000
    19  N   -0.198229   0.000000
    20  C    0.087826  -0.000000
    21  C    0.008453   0.000000
    22  C    0.064366   0.000000
    23  C    0.010362  -0.000000
    24  C    0.033526   0.000000
    25  C   -0.030762  -0.000000
    26  C    0.071491   0.000000
    27  O   -0.251327  -0.000000
    28  C    0.068761  -0.000000
    29  C   -0.033644   0.000000
    30  C    0.067004   0.000000
    31  C    0.024924  -0.000000
    32  C    0.091693   0.000000
    33  N   -0.199553   0.000000
    34  C    0.083812   0.000000
    35  C    0.006970  -0.000000
    36  C    0.065527   0.000000
    37  C    0.010111  -0.000000
    38  C    0.032135   0.000000
    39  C   -0.029930  -0.000000
    40  C    0.073279  -0.000000
    41  O   -0.251180   0.000000
    42  C    0.068342   0.000000
    43  C   -0.032508  -0.000000
    44  C    0.066271   0.000000
    45  C    0.018185  -0.000000
    46  C    0.050891   0.000000
    47  N   -0.195354   0.000000
    48  C    0.083358   0.000000
    49  C    0.058455  -0.000000
    50  C    0.050736   0.000000
    51  C    0.013654   0.000000
    52  C    0.042938   0.000000
    53  C    0.053885  -0.000000
    54  C   -0.021915   0.000000
    55  O   -0.266209   0.000000
    56  C    0.073037   0.000000
    57  C   -0.031910   0.000000
    58  C    0.065824  -0.000000
    59  C    0.028141  -0.000000
    60  C    0.091991   0.000000
    61  N   -0.197446   0.000000
    62  C    0.086878   0.000000
    63  C   -0.005802  -0.000000
    64  C    0.055103   0.000000
    65  C    0.038028  -0.000000
    66  C    0.030789   0.000000
    67  C   -0.018231  -0.000000
    68  C    0.067081   0.000000
    69  O   -0.250041   0.000000
    70  C    0.066687   0.000000
    71  H   -0.015691   0.000000
    72  H   -0.011721   0.000000
    73  H   -0.008938  -0.000000
    74  H   -0.002863  -0.000000
    75  H   -0.026876   0.000000
    76  H   -0.027265   0.000000
    77  H   -0.033368   0.000000
    78  H    0.046245   0.000000
    79  H    0.032639  -0.000000
    80  H    0.039405   0.000000
    81  H   -0.027644  -0.000000
    82  H   -0.023635   0.000000
    83  H   -0.006703   0.000000
    84  H   -0.030852   0.000000
    85  H   -0.033872  -0.000000
    86  H   -0.028973  -0.000000
    87  H    0.047667  -0.000000
    88  H    0.050645   0.000000
    89  H    0.047232   0.000000
    90  H   -0.022943  -0.000000
    91  H   -0.022847  -0.000000
    92  H   -0.011187  -0.000000
    93  H   -0.032768  -0.000000
    94  H   -0.035063   0.000000
    95  H   -0.028291   0.000000
    96  H    0.048912  -0.000000
    97  H    0.050496  -0.000000
    98  H    0.048099  -0.000000
    99  H   -0.021288   0.000000
   100  H   -0.011467   0.000000
   101  H   -0.009870   0.000000
   102  H   -0.028373  -0.000000
   103  H   -0.027589  -0.000000
   104  H   -0.033366   0.000000
   105  H    0.039661  -0.000000
   106  H    0.032817  -0.000000
   107  H    0.046349  -0.000000
   108  H   -0.028221  -0.000000
   109  H   -0.024107   0.000000
   110  H   -0.007252  -0.000000
   111  H   -0.030828   0.000000
   112  H   -0.025325  -0.000000
   113  H   -0.023776   0.000000
   114  H   -0.022622  -0.000000
   115  H    0.047127   0.000000
   116  H    0.047654  -0.000000
   117  H    0.046179   0.000000
 Sum of Mulliken charges =  -0.00000   0.00000

 Dipole moment (field-independent basis, Debye):
    X=              1.0652    Y=              4.6170    Z=              0.6465  Tot=              4.7822
 Quadrupole moment (field-independent basis, Debye-Ang):
   XX=           -289.4634   YY=           -358.4111   ZZ=           -407.2258
   XY=             -7.2314   XZ=            -25.9767   YZ=              1.0866

 Normal termination of Gaussian 16 at Sat Jul 25 19:57:56 2020.
