 Gaussian 16, Revision A.03,
 Gaussian 16:  EM64L-G16RevA.03 25-Dec-2016

 ---------------------------------------------------------------
 #P uLC-wPBE/cc-pVDZ iop(3/107=0313100000, 3/108=0313100000) opt
 ---------------------------------------------------------------

 ------------
 H7 C10 S1 F1
 ------------
 Symbolic Z-matrix:
 Charge =  0 Multiplicity = 1

 SCF Done:  E(ULC-wPBE) =  -882.800286334     A.U. after   16 cycles
 SCF Done:  E(ULC-wPBE) =  -882.826090614     A.U. after   14 cycles
 SCF Done:  E(ULC-wPBE) =  -882.829557713     A.U. after   13 cycles
 SCF Done:  E(ULC-wPBE) =  -882.829715322     A.U. after   12 cycles
 SCF Done:  E(ULC-wPBE) =  -882.829738784     A.U. after   11 cycles
 SCF Done:  E(ULC-wPBE) =  -882.829745313     A.U. after   10 cycles
 SCF Done:  E(ULC-wPBE) =  -882.829759932     A.U. after   11 cycles
 SCF Done:  E(ULC-wPBE) =  -882.829705470     A.U. after   16 cycles
 SCF Done:  E(ULC-wPBE) =  -882.829865382     A.U. after   13 cycles
 SCF Done:  E(ULC-wPBE) =  -882.829812913     A.U. after   14 cycles
 SCF Done:  E(ULC-wPBE) =  -882.829953158     A.U. after   12 cycles
 SCF Done:  E(ULC-wPBE) =  -882.830050615     A.U. after   13 cycles
 SCF Done:  E(ULC-wPBE) =  -882.830117256     A.U. after   12 cycles
 SCF Done:  E(ULC-wPBE) =  -882.830121143     A.U. after    9 cycles
 SCF Done:  E(ULC-wPBE) =  -882.830121673     A.U. after    8 cycles
 Optimization completed.
    -- Stationary point found.

                         Standard orientation:
 ---------------------------------------------------------------------
 Center     Atomic      Atomic             Coordinates (Angstroms)
 Number     Number       Type             X           Y           Z
 ---------------------------------------------------------------------
      1          6           0       -3.609127   -0.074049   -0.011661
      2          6           0       -2.900199   -1.217314    0.351722
      3          6           0       -1.508667   -1.206302    0.358765
      4          6           0       -0.798540   -0.054073   -0.006626
      5          6           0       -1.520979    1.091239   -0.372202
      6          6           0       -2.912767    1.078429   -0.370982
      7          6           0        0.676135   -0.045807   -0.009942
      8          6           0        1.540343    1.006608    0.154551
      9          9           0        1.132678    2.272646    0.357365
     10          6           0        2.922224    0.678003    0.109117
     11          6           0        3.098719   -0.659022   -0.098464
     12         16           0        1.604256   -1.494352   -0.241074
     13          1           0       -4.703623   -0.081064   -0.014034
     14          1           0       -3.434850   -2.127782    0.640671
     15          1           0       -0.963678   -2.105963    0.664453
     16          1           0       -0.984463    1.997463   -0.662660
     17          1           0       -3.459246    1.981856   -0.660178
     18          1           0        3.721939    1.410213    0.230511
     19          1           0        4.038882   -1.205173   -0.183534
 ---------------------------------------------------------------------

 The electronic state is 1-A.
 Alpha  occ. eigenvalues --  -88.28105 -24.46264 -10.15803 -10.11311 -10.11140
 Alpha  occ. eigenvalues --  -10.09849 -10.08860 -10.08107 -10.07998 -10.07908
 Alpha  occ. eigenvalues --  -10.07859 -10.07831  -7.88685  -5.90490  -5.89988
 Alpha  occ. eigenvalues --   -5.89567  -1.30382  -1.00765  -0.96693  -0.88643
 Alpha  occ. eigenvalues --   -0.85710  -0.84628  -0.82227  -0.72446  -0.71823
 Alpha  occ. eigenvalues --   -0.68029  -0.67319  -0.64489  -0.59906  -0.57192
 Alpha  occ. eigenvalues --   -0.56640  -0.55852  -0.54948  -0.53051  -0.51741
 Alpha  occ. eigenvalues --   -0.51007  -0.49471  -0.47686  -0.46927  -0.45295
 Alpha  occ. eigenvalues --   -0.44016  -0.42811  -0.38082  -0.35019  -0.34409
 Alpha  occ. eigenvalues --   -0.30576
 Alpha virt. eigenvalues --    0.02812   0.06569   0.08873   0.11368   0.14856
 Alpha virt. eigenvalues --    0.15542   0.15945   0.17823   0.18835   0.20338
 Alpha virt. eigenvalues --    0.21251   0.23427   0.24743   0.25018   0.27181

  Beta  occ. eigenvalues --  -88.28105 -24.46264 -10.15803 -10.11311 -10.11140
  Beta  occ. eigenvalues --  -10.09849 -10.08860 -10.08107 -10.07998 -10.07908
  Beta  occ. eigenvalues --  -10.07859 -10.07831  -7.88685  -5.90490  -5.89988
  Beta  occ. eigenvalues --   -5.89567  -1.30382  -1.00765  -0.96693  -0.88643
  Beta  occ. eigenvalues --   -0.85710  -0.84628  -0.82227  -0.72446  -0.71823
  Beta  occ. eigenvalues --   -0.68029  -0.67319  -0.64489  -0.59906  -0.57192
  Beta  occ. eigenvalues --   -0.56640  -0.55852  -0.54948  -0.53051  -0.51741
  Beta  occ. eigenvalues --   -0.51007  -0.49471  -0.47686  -0.46927  -0.45295
  Beta  occ. eigenvalues --   -0.44016  -0.42811  -0.38082  -0.35019  -0.34409
  Beta  occ. eigenvalues --   -0.30576
  Beta virt. eigenvalues --    0.02812   0.06569   0.08873   0.11368   0.14856
  Beta virt. eigenvalues --    0.15542   0.15945   0.17823   0.18835   0.20338
  Beta virt. eigenvalues --    0.21251   0.23427   0.24743   0.25018   0.27181

 Mulliken charges and spin densities:
               1          2
     1  C    0.010465  -0.000000
     2  C    0.019110  -0.000000
     3  C   -0.012888   0.000000
     4  C    0.052515  -0.000000
     5  C   -0.007410  -0.000000
     6  C    0.021363   0.000000
     7  C   -0.181882  -0.000000
     8  C    0.102112  -0.000000
     9  F   -0.126156   0.000000
    10  C    0.052013   0.000000
    11  C   -0.127995  -0.000000
    12  S    0.167711   0.000000
    13  H   -0.004829   0.000000
    14  H   -0.003415   0.000000
    15  H   -0.004539   0.000000
    16  H   -0.004995   0.000000
    17  H   -0.002635  -0.000000
    18  H    0.012570  -0.000000
    19  H    0.038885  -0.000000
 Sum of Mulliken charges =  -0.00000   0.00000

 Dipole moment (field-independent basis, Debye):
    X=              0.5148    Y=             -0.6301    Z=             -0.1121  Tot=              0.8213
 Quadrupole moment (field-independent basis, Debye-Ang):
   XX=            -61.3160   YY=            -71.8717   ZZ=            -79.1035
   XY=             -0.8516   XZ=             -0.0950   YZ=             -2.1008

 Normal termination of Gaussian 16 at Sat Jul 25 13:47:18 2020.
