 Gaussian 16, Revision A.03,
 Gaussian 16:  EM64L-G16RevA.03 25-Dec-2016

 ---------------------------------------------------------------
 #P uLC-wPBE/cc-pVDZ iop(3/107=0215000000, 3/108=0215000000) opt
 ---------------------------------------------------------------

 ----------------
 H51 C70 S7 N7 O7
 ----------------
 Symbolic Z-matrix:
 Charge =  0 Multiplicity = 1

 SCF Done:  E(ULC-wPBE) =  -6391.14661236     A.U. after   16 cycles
 SCF Done:  E(ULC-wPBE) =  -6391.25084964     A.U. after   13 cycles
 SCF Done:  E(ULC-wPBE) =  -6391.36116671     A.U. after   14 cycles
 SCF Done:  E(ULC-wPBE) =  -6391.39735768     A.U. after   14 cycles
 SCF Done:  E(ULC-wPBE) =  -6391.41194551     A.U. after   14 cycles
 SCF Done:  E(ULC-wPBE) =  -6391.42469191     A.U. after   16 cycles
 SCF Done:  E(ULC-wPBE) =  -6391.42691982     A.U. after   17 cycles
 SCF Done:  E(ULC-wPBE) =  -6391.43404956     A.U. after   14 cycles
 SCF Done:  E(ULC-wPBE) =  -6391.43709555     A.U. after   13 cycles
 SCF Done:  E(ULC-wPBE) =  -6391.43871698     A.U. after   16 cycles
 SCF Done:  E(ULC-wPBE) =  -6391.43934488     A.U. after   10 cycles
 SCF Done:  E(ULC-wPBE) =  -6391.43934580     A.U. after    7 cycles
 SCF Done:  E(ULC-wPBE) =  -6391.43934696     A.U. after    7 cycles
 SCF Done:  E(ULC-wPBE) =  -6391.43934825     A.U. after    9 cycles
 SCF Done:  E(ULC-wPBE) =  -6391.43934838     A.U. after    7 cycles
 SCF Done:  E(ULC-wPBE) =  -6391.43934833     A.U. after    7 cycles
 SCF Done:  E(ULC-wPBE) =  -6391.43934826     A.U. after    6 cycles
 SCF Done:  E(ULC-wPBE) =  -6391.43934833     A.U. after    5 cycles
 SCF Done:  E(ULC-wPBE) =  -6391.43934828     A.U. after    6 cycles
 SCF Done:  E(ULC-wPBE) =  -6391.43934830     A.U. after    6 cycles
 Optimization completed.
    -- Stationary point found.

                         Standard orientation:
 ---------------------------------------------------------------------
 Center     Atomic      Atomic             Coordinates (Angstroms)
 Number     Number       Type             X           Y           Z
 ---------------------------------------------------------------------
      1          6           0       25.394694   -3.972503   -2.081806
      2          6           0       24.389945   -3.175431   -2.627382
      3          7           0       23.258668   -2.885702   -1.974572
      4          6           0       23.060578   -3.374008   -0.738498
      5          6           0       24.031919   -4.196410   -0.104081
      6          8           0       23.747715   -4.647628    1.149462
      7          6           0       24.713566   -5.470000    1.791304
      8          6           0       25.211170   -4.491696   -0.796859
      9          6           0       21.781145   -2.992273   -0.118565
     10          6           0       21.217244   -3.279086    1.111911
     11          6           0       19.937257   -2.687135    1.286191
     12          6           0       19.524491   -1.948384    0.192701
     13         16           0       20.719373   -1.987207   -1.071157
     14          6           0       18.267630   -1.200468    0.031135
     15          6           0       18.180703   -0.049428   -0.769890
     16          7           0       17.062129    0.658343   -0.937865
     17          6           0       15.936937    0.279665   -0.309624
     18          6           0       15.922865   -0.864936    0.530294
     19          8           0       14.734388   -1.167267    1.120551
     20          6           0       14.669773   -2.312383    1.959925
     21          6           0       17.093800   -1.606942    0.689509
     22          6           0       14.755860    1.126477   -0.563108
     23          6           0       14.758458    2.241656   -1.383165
     24          6           0       13.499045    2.885930   -1.461617
     25          6           0       12.522261    2.265357   -0.703240
     26         16           0       13.171509    0.877878    0.121712
     27          6           0       11.110796    2.648997   -0.548702
     28          6           0       10.102534    1.706174   -0.290965
     29          7           0        8.814754    2.022591   -0.145944
     30          6           0        8.420776    3.302225   -0.259178
     31          6           0        9.362102    4.332491   -0.530399
     32          8           0        8.884897    5.604161   -0.628982
     33          6           0        9.816689    6.643157   -0.901888
     34          6           0       10.709651    3.991998   -0.664637
     35          6           0        6.979326    3.531103   -0.083911
     36          6           0        6.205451    4.677845   -0.110685
     37          6           0        4.825415    4.422879    0.113281
     38          6           0        4.543333    3.083942    0.310227
     39         16           0        5.991641    2.122788    0.212238
     40          6           0        3.234619    2.464428    0.569087
     41          6           0        2.048190    3.048471    0.095444
     42          7           0        0.835486    2.540360    0.319182
     43          6           0        0.702703    1.399204    1.017105
     44          6           0        1.843180    0.718231    1.522322
     45          8           0        1.628653   -0.435523    2.212666
     46          6           0        2.765546   -1.131216    2.709937
     47          6           0        3.106891    1.268238    1.296767
     48          6           0       -0.679722    0.934238    1.199260
     49          6           0       -1.217818   -0.161416    1.850892
     50          6           0       -2.635674   -0.215354    1.770392
     51          6           0       -3.181581    0.836310    1.058345
     52         16           0       -1.936695    1.903013    0.472391
     53          6           0       -4.602121    1.098024    0.780479
     54          6           0       -5.529516    0.046980    0.690816
     55          7           0       -6.830749    0.228954    0.461394
     56          6           0       -7.315544    1.470470    0.286465
     57          6           0       -6.456143    2.601301    0.337581
     58          8           0       -7.020041    3.825172    0.143597
     59          6           0       -6.166662    4.962565    0.187724
     60          6           0       -5.097946    2.400257    0.593258
     61          6           0       -8.763491    1.548782    0.046232
     62          6           0       -9.616571    2.615052   -0.177171
     63          6           0      -10.968370    2.216939   -0.361334
     64          6           0      -11.149734    0.849000   -0.279064
     65         16           0       -9.640974    0.039791    0.037081
     66          6           0      -12.403684    0.093484   -0.422039
     67          6           0      -13.640266    0.668753   -0.086241
     68          7           0      -14.807220    0.036369   -0.216471
     69          6           0      -14.840751   -1.226703   -0.674941
     70          6           0      -13.642023   -1.906220   -1.022858
     71          8           0      -13.755500   -3.186900   -1.472640
     72          6           0      -12.559565   -3.876098   -1.815829
     73          6           0      -12.426982   -1.229221   -0.898177
     74          6           0      -16.181967   -1.819974   -0.775809
     75          6           0      -16.622495   -3.061581   -1.199408
     76          6           0      -18.034429   -3.203097   -1.126056
     77          6           0      -18.672649   -2.072965   -0.649119
     78         16           0      -17.523314   -0.820846   -0.276884
     79          6           0      -20.116116   -1.867091   -0.450337
     80          6           0      -20.713665   -0.601768   -0.558994
     81          7           0      -22.019357   -0.384384   -0.390133
     82          6           0      -22.841333   -1.409078   -0.108959
     83          6           0      -22.335590   -2.732242    0.014982
     84          8           0      -23.229690   -3.719126    0.306164
     85          6           0      -22.733222   -5.043408    0.441355
     86          6           0      -20.966201   -2.946877   -0.151101
     87          6           0      -24.258633   -1.050917    0.056335
     88          6           0      -25.382584   -1.805216    0.343554
     89          6           0      -26.573331   -1.024911    0.410355
     90          6           0      -26.339775    0.309217    0.173585
     91         16           0      -24.674679    0.635579   -0.132893
     92          1           0       26.309996   -4.188761   -2.645965
     93          1           0       24.490458   -2.745426   -3.634547
     94          1           0       24.893267   -6.406900    1.225387
     95          1           0       25.675786   -4.936433    1.931858
     96          1           0       24.290607   -5.719048    2.778311
     97          1           0       25.985292   -5.120980   -0.344734
     98          1           0       21.719778   -3.890542    1.863209
     99          1           0       19.349249   -2.776438    2.206603
    100          1           0       19.072098    0.325286   -1.295301
    101          1           0       15.359091   -2.221546    2.824042
    102          1           0       14.902832   -3.240540    1.399438
    103          1           0       13.631273   -2.358809    2.325901
    104          1           0       17.104251   -2.513967    1.303117
    105          1           0       15.666844    2.553488   -1.906426
    106          1           0       13.304342    3.766086   -2.084456
    107          1           0       10.349758    0.637123   -0.209792
    108          1           0       10.573689    6.734786   -0.096518
    109          1           0       10.330638    6.485442   -1.871963
    110          1           0        9.226316    7.572639   -0.951446
    111          1           0       11.466566    4.763718   -0.838850
    112          1           0        6.628175    5.669862   -0.278608
    113          1           0        4.063422    5.208670    0.157297
    114          1           0        2.083505    3.966212   -0.508900
    115          1           0        3.445661   -1.439185    1.890001
    116          1           0        3.329542   -0.519803    3.443451
    117          1           0        2.372681   -2.029760    3.213123
    118          1           0        4.005313    0.784856    1.696256
    119          1           0       -0.603136   -0.894422    2.376127
    120          1           0       -3.241096   -0.992349    2.249792
    121          1           0       -5.198180   -0.996211    0.794615
    122          1           0       -6.814995    5.833304   -0.003034
    123          1           0       -5.381191    4.913437   -0.593530
    124          1           0       -5.688033    5.075117    1.181781
    125          1           0       -4.411857    3.251246    0.667626
    126          1           0       -9.269601    3.649094   -0.213927
    127          1           0      -11.782377    2.917094   -0.578648
    128          1           0      -13.686228    1.688089    0.323155
    129          1           0      -11.876612   -3.965792   -0.946700
    130          1           0      -12.873185   -4.882897   -2.136831
    131          1           0      -12.025860   -3.377336   -2.650338
    132          1           0      -11.486336   -1.712523   -1.184624
    133          1           0      -15.943424   -3.836813   -1.558465
    134          1           0      -18.570121   -4.103577   -1.447178
    135          1           0      -20.104912    0.280491   -0.807471
    136          1           0      -22.003195   -5.124028    1.272688
    137          1           0      -23.609436   -5.673192    0.666961
    138          1           0      -22.259835   -5.400523   -0.496257
    139          1           0      -20.538023   -3.947237   -0.028952
    140          1           0      -25.343307   -2.884654    0.499899
    141          1           0      -27.564560   -1.438700    0.625874
    142          1           0      -27.066404    1.127122    0.162800
 ---------------------------------------------------------------------

 Alpha virt. eigenvalues --    0.16430   0.16921   0.16935   0.17057   0.17282
 Alpha virt. eigenvalues --    0.17408   0.17435   0.17630   0.17763   0.17965
 Alpha virt. eigenvalues --    0.18025   0.18228   0.18254   0.18327   0.18382

  Beta  occ. eigenvalues --  -88.21997 -88.21637 -88.21503 -88.21304 -88.21059
  Beta  occ. eigenvalues --  -88.20728 -88.20082 -18.94132 -18.93941 -18.93844
  Beta  occ. eigenvalues --  -18.93597 -18.93368 -18.93159 -18.92872 -14.12385
  Beta  occ. eigenvalues --  -14.12274 -14.12077 -14.12014 -14.11859 -14.11546
  Beta  occ. eigenvalues --  -14.11105 -10.09879 -10.09640 -10.09509 -10.09408
  Beta  occ. eigenvalues --  -10.09267 -10.09188 -10.08943 -10.08928 -10.08905
  Beta  occ. eigenvalues --  -10.08608 -10.08575 -10.08372 -10.08215 -10.08112
  Beta  occ. eigenvalues --  -10.07366 -10.07010 -10.06971 -10.06797 -10.06580
  Beta  occ. eigenvalues --  -10.06303 -10.05956 -10.05546 -10.05419 -10.05411
  Beta  occ. eigenvalues --  -10.05338 -10.05304 -10.05208 -10.05194 -10.05178
  Beta  occ. eigenvalues --  -10.05134 -10.05091 -10.05031 -10.05004 -10.04971
  Beta  occ. eigenvalues --  -10.04923 -10.04884 -10.04819 -10.04785 -10.04726
  Beta  occ. eigenvalues --  -10.04684 -10.04638 -10.04566 -10.04526 -10.04410
  Beta  occ. eigenvalues --  -10.04291 -10.04241 -10.04231 -10.04132 -10.03994
  Beta  occ. eigenvalues --  -10.03928 -10.03901 -10.03779 -10.03702 -10.03526
  Beta  occ. eigenvalues --  -10.03261 -10.03077 -10.02595 -10.02511 -10.02468
  Beta  occ. eigenvalues --  -10.02332 -10.02226 -10.02126 -10.02020 -10.01950
  Beta  occ. eigenvalues --  -10.01864 -10.01776 -10.01697 -10.01548 -10.00952
  Beta  occ. eigenvalues --  -10.00878  -7.82316  -7.81970  -7.81845  -7.81645
  Beta  occ. eigenvalues --   -7.81400  -7.81062  -7.80427  -5.84316  -5.83965
  Beta  occ. eigenvalues --   -5.83839  -5.83830  -5.83640  -5.83485  -5.83457
  Beta  occ. eigenvalues --   -5.83395  -5.83364  -5.83164  -5.83111  -5.83058
  Beta  occ. eigenvalues --   -5.82981  -5.82920  -5.82782  -5.82578  -5.82537
  Beta  occ. eigenvalues --   -5.82413  -5.82202  -5.81932  -5.81587  -1.12583
  Beta  occ. eigenvalues --   -1.12419  -1.12294  -1.12043  -1.11816  -1.11596
  Beta  occ. eigenvalues --   -1.11328  -0.99609  -0.99539  -0.99322  -0.99306
  Beta  occ. eigenvalues --   -0.99101  -0.98813  -0.98399  -0.93729  -0.93456
  Beta  occ. eigenvalues --   -0.93262  -0.93051  -0.92801  -0.92456  -0.91359
  Beta  occ. eigenvalues --   -0.87504  -0.87118  -0.86798  -0.86514  -0.86205
  Beta  occ. eigenvalues --   -0.86174  -0.85768  -0.84840  -0.84593  -0.84309
  Beta  occ. eigenvalues --   -0.84022  -0.83756  -0.83530  -0.83094  -0.80133
  Beta  occ. eigenvalues --   -0.79520  -0.79468  -0.79256  -0.79180  -0.78997
  Beta  occ. eigenvalues --   -0.78861  -0.78450  -0.78356  -0.78136  -0.77859
  Beta  occ. eigenvalues --   -0.77620  -0.77323  -0.77200  -0.76974  -0.76930
  Beta  occ. eigenvalues --   -0.76697  -0.76173  -0.75464  -0.74757  -0.73964
  Beta  occ. eigenvalues --   -0.72092  -0.71256  -0.70334  -0.69666  -0.69275
  Beta  occ. eigenvalues --   -0.68639  -0.68430  -0.68155  -0.67951  -0.67726
  Beta  occ. eigenvalues --   -0.67721  -0.67352  -0.67256  -0.66736  -0.63202
  Beta  occ. eigenvalues --   -0.63061  -0.62844  -0.62740  -0.62520  -0.62324
  Beta  occ. eigenvalues --   -0.62198  -0.61988  -0.61818  -0.61604  -0.61384
  Beta  occ. eigenvalues --   -0.61201  -0.60909  -0.60154  -0.60124  -0.59267
  Beta  occ. eigenvalues --   -0.59070  -0.58870  -0.58590  -0.58155  -0.57894
  Beta  occ. eigenvalues --   -0.57756  -0.57593  -0.57382  -0.57155  -0.56937
  Beta  occ. eigenvalues --   -0.56768  -0.56728  -0.56623  -0.56239  -0.56024
  Beta  occ. eigenvalues --   -0.55823  -0.55712  -0.55542  -0.55148  -0.55097
  Beta  occ. eigenvalues --   -0.54847  -0.54787  -0.54514  -0.54283  -0.54123
  Beta  occ. eigenvalues --   -0.54087  -0.53902  -0.53555  -0.52939  -0.52348
  Beta  occ. eigenvalues --   -0.51721  -0.51121  -0.51063  -0.50795  -0.50661
  Beta  occ. eigenvalues --   -0.50527  -0.50470  -0.50256  -0.50066  -0.49773
  Beta  occ. eigenvalues --   -0.49692  -0.49567  -0.49389  -0.49202  -0.49040
  Beta  occ. eigenvalues --   -0.48908  -0.48631  -0.48310  -0.48241  -0.47709
  Beta  occ. eigenvalues --   -0.47389  -0.47343  -0.47223  -0.47030  -0.46829
  Beta  occ. eigenvalues --   -0.46631  -0.46559  -0.46381  -0.46260  -0.46055
  Beta  occ. eigenvalues --   -0.45975  -0.45832  -0.45725  -0.45465  -0.45324
  Beta  occ. eigenvalues --   -0.45279  -0.45106  -0.45043  -0.44808  -0.44756
  Beta  occ. eigenvalues --   -0.44618  -0.44545  -0.44461  -0.44312  -0.44215
  Beta  occ. eigenvalues --   -0.44046  -0.43962  -0.43870  -0.43672  -0.43489
  Beta  occ. eigenvalues --   -0.43290  -0.43103  -0.42435  -0.41979  -0.41860
  Beta  occ. eigenvalues --   -0.41656  -0.41564  -0.41487  -0.41258  -0.41038
  Beta  occ. eigenvalues --   -0.41029  -0.41006  -0.40798  -0.40696  -0.40557
  Beta  occ. eigenvalues --   -0.40403  -0.40206  -0.40161  -0.39914  -0.39889
  Beta  occ. eigenvalues --   -0.39611  -0.39481  -0.39283  -0.38831  -0.38698
  Beta  occ. eigenvalues --   -0.38525  -0.37962  -0.37217  -0.36439  -0.35766
  Beta  occ. eigenvalues --   -0.35297  -0.32747  -0.32619  -0.32533  -0.32494
  Beta  occ. eigenvalues --   -0.32342  -0.32269  -0.32153  -0.32087  -0.32000
  Beta  occ. eigenvalues --   -0.31976  -0.31956  -0.31885  -0.31813  -0.31755
  Beta  occ. eigenvalues --   -0.31622  -0.31592  -0.31439  -0.31346  -0.31173
  Beta  occ. eigenvalues --   -0.31054  -0.30441  -0.29683  -0.28826  -0.27908
  Beta  occ. eigenvalues --   -0.26853  -0.25821  -0.24986  -0.24291
  Beta virt. eigenvalues --   -0.02803  -0.02036  -0.01152  -0.00080   0.01035
  Beta virt. eigenvalues --    0.01982   0.02881   0.04017   0.04068   0.04253
  Beta virt. eigenvalues --    0.04451   0.04658   0.04781   0.05115   0.05908

 Mulliken charges and spin densities:
               1          2
     1  C   -0.028234   0.000000
     2  C    0.088302  -0.000000
     3  N   -0.210056   0.000000
     4  C    0.119920  -0.000000
     5  C    0.110137   0.000000
     6  O   -0.245694  -0.000000
     7  C    0.060369   0.000000
     8  C    0.019370  -0.000000
     9  C   -0.134844   0.000000
    10  C    0.015611   0.000000
    11  C    0.037385  -0.000000
    12  C   -0.164437  -0.000000
    13  S    0.196413   0.000000
    14  C   -0.002141   0.000000
    15  C    0.079975  -0.000000
    16  N   -0.191433   0.000000
    17  C    0.078791  -0.000000
    18  C    0.124436   0.000000
    19  O   -0.251575  -0.000000
    20  C    0.064091   0.000000
    21  C    0.023216   0.000000
    22  C   -0.147103  -0.000000
    23  C    0.082196  -0.000000
    24  C    0.034286   0.000000
    25  C   -0.166802  -0.000000
    26  S    0.161521   0.000000
    27  C    0.004698   0.000000
    28  C    0.081231   0.000000
    29  N   -0.209113   0.000000
    30  C    0.128314  -0.000000
    31  C    0.117799  -0.000000
    32  O   -0.247517   0.000000
    33  C    0.062783  -0.000000
    34  C    0.022134   0.000000
    35  C   -0.134760  -0.000000
    36  C    0.012563   0.000000
    37  C    0.040813  -0.000000
    38  C   -0.163729   0.000000
    39  S    0.179452  -0.000000
    40  C    0.002606   0.000000
    41  C    0.082378   0.000000
    42  N   -0.209474   0.000000
    43  C    0.126636  -0.000000
    44  C    0.117931  -0.000000
    45  O   -0.248094   0.000000
    46  C    0.061366   0.000000
    47  C    0.019526   0.000000
    48  C   -0.134746   0.000000
    49  C    0.012619   0.000000
    50  C    0.041303  -0.000000
    51  C   -0.164457   0.000000
    52  S    0.179469  -0.000000
    53  C    0.001744   0.000000
    54  C    0.082523  -0.000000
    55  N   -0.209534   0.000000
    56  C    0.126778  -0.000000
    57  C    0.117764   0.000000
    58  O   -0.247881   0.000000
    59  C    0.061346   0.000000
    60  C    0.020138  -0.000000
    61  C   -0.134729   0.000000
    62  C    0.012684  -0.000000
    63  C    0.041422   0.000000
    64  C   -0.164041  -0.000000
    65  S    0.178176  -0.000000
    66  C    0.001377  -0.000000
    67  C    0.083118   0.000000
    68  N   -0.208088  -0.000000
    69  C    0.126929  -0.000000
    70  C    0.116973   0.000000
    71  O   -0.248605  -0.000000
    72  C    0.061755   0.000000
    73  C    0.019793   0.000000
    74  C   -0.137328   0.000000
    75  C    0.011840  -0.000000
    76  C    0.037413  -0.000000
    77  C   -0.165293   0.000000
    78  S    0.195356  -0.000000
    79  C   -0.003504   0.000000
    80  C    0.082203   0.000000
    81  N   -0.208256  -0.000000
    82  C    0.138029   0.000000
    83  C    0.116448  -0.000000
    84  O   -0.246857   0.000000
    85  C    0.064175   0.000000
    86  C    0.020854  -0.000000
    87  C   -0.144604   0.000000
    88  C   -0.015656  -0.000000
    89  C    0.071604   0.000000
    90  C   -0.135236  -0.000000
    91  S    0.184736  -0.000000
    92  H   -0.008654  -0.000000
    93  H    0.003283  -0.000000
    94  H    0.049849  -0.000000
    95  H    0.050087   0.000000
    96  H    0.055041  -0.000000
    97  H   -0.003212   0.000000
    98  H   -0.021204   0.000000
    99  H   -0.024622   0.000000
   100  H    0.003133  -0.000000
   101  H    0.048019  -0.000000
   102  H    0.051903  -0.000000
   103  H    0.058486  -0.000000
   104  H   -0.014808   0.000000
   105  H   -0.013991   0.000000
   106  H   -0.021225   0.000000
   107  H    0.000785  -0.000000
   108  H    0.052354   0.000000
   109  H    0.049581   0.000000
   110  H    0.054695  -0.000000
   111  H   -0.012593  -0.000000
   112  H   -0.020622  -0.000000
   113  H   -0.018450  -0.000000
   114  H   -0.004445  -0.000000
   115  H    0.053119  -0.000000
   116  H    0.052470   0.000000
   117  H    0.053566  -0.000000
   118  H   -0.003436  -0.000000
   119  H   -0.020513  -0.000000
   120  H   -0.018364   0.000000
   121  H   -0.005006   0.000000
   122  H    0.053864   0.000000
   123  H    0.052835  -0.000000
   124  H    0.052671  -0.000000
   125  H   -0.003649   0.000000
   126  H   -0.020327  -0.000000
   127  H   -0.017618   0.000000
   128  H   -0.003544  -0.000000
   129  H    0.052422   0.000000
   130  H    0.052229   0.000000
   131  H    0.052696   0.000000
   132  H   -0.003919   0.000000
   133  H   -0.022543  -0.000000
   134  H   -0.026045  -0.000000
   135  H    0.004180   0.000000
   136  H    0.050753  -0.000000
   137  H    0.052569  -0.000000
   138  H    0.046683  -0.000000
   139  H   -0.015409   0.000000
   140  H   -0.020472  -0.000000
   141  H   -0.018983  -0.000000
   142  H    0.015383  -0.000000
 Sum of Mulliken charges =  -0.00000  -0.00000

 Dipole moment (field-independent basis, Debye):
    X=             18.7029    Y=             -6.0424    Z=              3.7198  Tot=             20.0037
 Quadrupole moment (field-independent basis, Debye-Ang):
   XX=           -482.4555   YY=           -450.0519   ZZ=           -562.0992
   XY=             -5.9418   XZ=             61.0708   YZ=            -22.9660

 Normal termination of Gaussian 16 at Sat Jul 25 20:13:32 2020.
