 Gaussian 16, Revision A.03,
 Gaussian 16:  EM64L-G16RevA.03 25-Dec-2016

 ---------------------------------------------------------------
 #P uLC-wPBE/cc-pVDZ iop(3/107=0431900000, 3/108=0431900000) opt
 ---------------------------------------------------------------

 ----------------
 H23 C33 S3 O3 F3
 ----------------
 Symbolic Z-matrix:
 Charge =  0 Multiplicity = 1

 SCF Done:  E(ULC-wPBE) =  -2989.50475588     A.U. after   18 cycles
 SCF Done:  E(ULC-wPBE) =  -2989.56725287     A.U. after   14 cycles
 SCF Done:  E(ULC-wPBE) =  -2989.61314781     A.U. after   16 cycles
 SCF Done:  E(ULC-wPBE) =  -2989.61775471     A.U. after   14 cycles
 SCF Done:  E(ULC-wPBE) =  -2989.62083500     A.U. after   14 cycles
 SCF Done:  E(ULC-wPBE) =  -2989.62320849     A.U. after   17 cycles
 SCF Done:  E(ULC-wPBE) =  -2989.62464279     A.U. after   15 cycles
 SCF Done:  E(ULC-wPBE) =  -2989.62529059     A.U. after   14 cycles
 SCF Done:  E(ULC-wPBE) =  -2989.62578001     A.U. after   14 cycles
 SCF Done:  E(ULC-wPBE) =  -2989.62585951     A.U. after   12 cycles
 SCF Done:  E(ULC-wPBE) =  -2989.62592598     A.U. after   11 cycles
 SCF Done:  E(ULC-wPBE) =  -2989.62593928     A.U. after   11 cycles
 SCF Done:  E(ULC-wPBE) =  -2989.62594381     A.U. after   11 cycles
 SCF Done:  E(ULC-wPBE) =  -2989.62594630     A.U. after   11 cycles
 SCF Done:  E(ULC-wPBE) =  -2989.62594681     A.U. after    8 cycles
 SCF Done:  E(ULC-wPBE) =  -2989.62594693     A.U. after    7 cycles
 SCF Done:  E(ULC-wPBE) =  -2989.62594694     A.U. after    7 cycles
 SCF Done:  E(ULC-wPBE) =  -2989.62594710     A.U. after    7 cycles
 SCF Done:  E(ULC-wPBE) =  -2989.62594715     A.U. after    7 cycles
 SCF Done:  E(ULC-wPBE) =  -2989.62594721     A.U. after    6 cycles
 Optimization completed.
    -- Stationary point found.

                         Standard orientation:
 ---------------------------------------------------------------------
 Center     Atomic      Atomic             Coordinates (Angstroms)
 Number     Number       Type             X           Y           Z
 ---------------------------------------------------------------------
      1          6           0      -11.317857   -1.193895    0.007473
      2          6           0      -10.400519   -2.058705    0.576893
      3          6           0       -9.078855   -1.652721    0.703137
      4          6           0       -8.658384   -0.402571    0.266694
      5          6           0       -9.597890    0.459717   -0.324366
      6          8           0       -9.125261    1.645137   -0.761040
      7          6           0      -10.032412    2.564751   -1.312179
      8          6           0      -10.924429    0.060415   -0.442882
      9          6           0       -7.251124    0.005031    0.402722
     10          6           0       -6.729046    1.138161    0.943111
     11          9           0       -7.472322    2.112187    1.469369
     12          6           0       -5.314388    1.206670    0.949069
     13          6           0       -4.750988    0.092332    0.401723
     14         16           0       -5.962446   -1.011379   -0.127823
     15          6           0       -3.321571   -0.210596    0.233206
     16          6           0       -2.843648   -1.513711    0.288860
     17          6           0       -1.490345   -1.766384    0.134927
     18          6           0       -0.567205   -0.745775   -0.078287
     19          6           0       -1.060495    0.571384   -0.122775
     20          8           0       -0.140913    1.542797   -0.319456
     21          6           0       -0.561512    2.883558   -0.351804
     22          6           0       -2.414690    0.829042    0.023833
     23          6           0        0.860081   -1.057734   -0.250368
     24          6           0        1.406315   -2.246857   -0.644021
     25          9           0        0.679996   -3.308336   -1.018255
     26          6           0        2.816976   -2.310588   -0.644777
     27          6           0        3.367472   -1.132137   -0.238257
     28         16           0        2.153550    0.030141    0.125212
     29          6           0        4.796580   -0.805042   -0.118297
     30          6           0        5.714773   -1.784553    0.239699
     31          6           0        7.060430   -1.472612    0.340774
     32          6           0        7.542126   -0.189096    0.096027
     33          6           0        6.602658    0.798727   -0.249485
     34          8           0        7.096830    2.037815   -0.465032
     35          6           0        6.209929    3.079883   -0.787289
     36          6           0        5.254897    0.490462   -0.358994
     37          6           0        8.982114    0.097629    0.201140
     38          6           0       10.011311   -0.792804    0.078400
     39          9           0        9.840743   -2.084567   -0.234395
     40          6           0       11.307706   -0.273182    0.307161
     41          6           0       11.245729    1.047310    0.613535
     42         16           0        9.647538    1.645032    0.600028
     43          1           0      -12.361810   -1.490891   -0.094970
     44          1           0      -10.708110   -3.041800    0.930367
     45          1           0       -8.346252   -2.315972    1.164347
     46          1           0      -10.812073    2.846970   -0.588776
     47          1           0      -10.507715    2.170990   -2.223440
     48          1           0       -9.447503    3.452578   -1.570592
     49          1           0      -11.661422    0.720277   -0.894809
     50          1           0       -4.759940    2.035499    1.381774
     51          1           0       -3.526782   -2.341381    0.476759
     52          1           0       -1.135937   -2.792189    0.191801
     53          1           0       -1.038751    3.179981    0.594105
     54          1           0       -1.255875    3.068091   -1.184754
     55          1           0        0.341943    3.482446   -0.500587
     56          1           0       -2.788760    1.847174   -0.047482
     57          1           0        3.375065   -3.185097   -0.968221
     58          1           0        5.376120   -2.794095    0.467089
     59          1           0        7.762591   -2.250339    0.630030
     60          1           0        5.468907    3.239983    0.009951
     61          1           0        5.688832    2.885871   -1.736432
     62          1           0        6.823853    3.979189   -0.893637
     63          1           0        4.542642    1.256744   -0.656643
     64          1           0       12.214445   -0.867512    0.234951
     65          1           0       12.074818    1.716573    0.826619
 ---------------------------------------------------------------------

 The electronic state is 1-A.
 Alpha  occ. eigenvalues --  -88.34006 -88.33965 -88.33872 -24.52104 -24.51961
 Alpha  occ. eigenvalues --  -24.51238 -19.04152 -19.03958 -19.03042 -10.22183
 Alpha  occ. eigenvalues --  -10.21989 -10.21772 -10.21251 -10.21128 -10.20614
 Alpha  occ. eigenvalues --  -10.20153 -10.19917 -10.19295 -10.18115 -10.17995
 Alpha  occ. eigenvalues --  -10.17593 -10.17417 -10.17104 -10.16982 -10.16652
 Alpha  occ. eigenvalues --  -10.16576 -10.16278 -10.16141 -10.15560 -10.14763
 Alpha  occ. eigenvalues --  -10.14695 -10.14694 -10.14671 -10.14655 -10.14640
 Alpha  occ. eigenvalues --  -10.14619 -10.14572 -10.14557 -10.14074 -10.14043
 Alpha  occ. eigenvalues --  -10.13967 -10.13564  -7.94783  -7.94767  -7.94647
 Alpha  occ. eigenvalues --   -5.96181  -5.96180  -5.96052  -5.95648  -5.95627
 Alpha  occ. eigenvalues --   -5.95494  -5.95199  -5.95184  -5.95082  -1.36707
 Alpha  occ. eigenvalues --   -1.36544  -1.35994  -1.23955  -1.23781  -1.23000
 Alpha  occ. eigenvalues --   -1.07427  -1.07184  -1.06565  -1.04030  -1.03258
 Alpha  occ. eigenvalues --   -1.02611  -0.97266  -0.95671  -0.93869  -0.92341
 Alpha  occ. eigenvalues --   -0.92242  -0.91625  -0.90294  -0.90000  -0.89538
 Alpha  occ. eigenvalues --   -0.89243  -0.87835  -0.87556  -0.86163  -0.85371
 Alpha  occ. eigenvalues --   -0.84174  -0.79678  -0.77947  -0.76910  -0.75853
 Alpha  occ. eigenvalues --   -0.75013  -0.74517  -0.72731  -0.72084  -0.71401
 Alpha  occ. eigenvalues --   -0.71336  -0.71048  -0.70617  -0.69246  -0.68555
 Alpha  occ. eigenvalues --   -0.67811  -0.66054  -0.64984  -0.64266  -0.63902
 Alpha  occ. eigenvalues --   -0.63031  -0.62785  -0.62418  -0.62245  -0.61580
 Alpha  occ. eigenvalues --   -0.61314  -0.61047  -0.60993  -0.60851  -0.60632
 Alpha  occ. eigenvalues --   -0.59948  -0.59797  -0.59065  -0.58187  -0.57999
 Alpha  occ. eigenvalues --   -0.57461  -0.57199  -0.56471  -0.56072  -0.55836
 Alpha  occ. eigenvalues --   -0.55412  -0.54821  -0.54748  -0.54340  -0.53815
 Alpha  occ. eigenvalues --   -0.53268  -0.52427  -0.52183  -0.51828  -0.50961
 Alpha  occ. eigenvalues --   -0.50700  -0.50168  -0.50129  -0.49942  -0.49679
 Alpha  occ. eigenvalues --   -0.48684  -0.48482  -0.48114  -0.47636  -0.47146
 Alpha  occ. eigenvalues --   -0.46898  -0.46310  -0.45975  -0.45694  -0.45280
 Alpha  occ. eigenvalues --   -0.44809  -0.44574  -0.44245  -0.41625  -0.39675
 Alpha  occ. eigenvalues --   -0.37676  -0.35927  -0.35624  -0.35525  -0.34939
 Alpha  occ. eigenvalues --   -0.34755  -0.34118  -0.32674  -0.30852  -0.28635
 Alpha virt. eigenvalues --    0.00758   0.03358   0.06315   0.07932   0.08213
 Alpha virt. eigenvalues --    0.08334   0.09171   0.10772   0.12744   0.13871
 Alpha virt. eigenvalues --    0.14123   0.14490   0.14952   0.15609   0.15868

  Beta  occ. eigenvalues --  -88.34006 -88.33965 -88.33872 -24.52104 -24.51961
  Beta  occ. eigenvalues --  -24.51238 -19.04152 -19.03958 -19.03042 -10.22183
  Beta  occ. eigenvalues --  -10.21989 -10.21772 -10.21251 -10.21128 -10.20614
  Beta  occ. eigenvalues --  -10.20153 -10.19917 -10.19295 -10.18115 -10.17995
  Beta  occ. eigenvalues --  -10.17593 -10.17417 -10.17104 -10.16982 -10.16652
  Beta  occ. eigenvalues --  -10.16576 -10.16278 -10.16141 -10.15560 -10.14763
  Beta  occ. eigenvalues --  -10.14695 -10.14694 -10.14671 -10.14655 -10.14640
  Beta  occ. eigenvalues --  -10.14619 -10.14572 -10.14557 -10.14074 -10.14043
  Beta  occ. eigenvalues --  -10.13967 -10.13564  -7.94783  -7.94767  -7.94647
  Beta  occ. eigenvalues --   -5.96181  -5.96180  -5.96052  -5.95648  -5.95627
  Beta  occ. eigenvalues --   -5.95494  -5.95199  -5.95184  -5.95082  -1.36707
  Beta  occ. eigenvalues --   -1.36544  -1.35994  -1.23955  -1.23781  -1.23000
  Beta  occ. eigenvalues --   -1.07427  -1.07184  -1.06565  -1.04030  -1.03258
  Beta  occ. eigenvalues --   -1.02611  -0.97266  -0.95671  -0.93869  -0.92341
  Beta  occ. eigenvalues --   -0.92242  -0.91625  -0.90294  -0.90000  -0.89538
  Beta  occ. eigenvalues --   -0.89243  -0.87835  -0.87556  -0.86163  -0.85371
  Beta  occ. eigenvalues --   -0.84174  -0.79678  -0.77947  -0.76910  -0.75853
  Beta  occ. eigenvalues --   -0.75013  -0.74517  -0.72731  -0.72084  -0.71401
  Beta  occ. eigenvalues --   -0.71336  -0.71048  -0.70617  -0.69246  -0.68555
  Beta  occ. eigenvalues --   -0.67811  -0.66054  -0.64984  -0.64266  -0.63902
  Beta  occ. eigenvalues --   -0.63031  -0.62785  -0.62418  -0.62245  -0.61580
  Beta  occ. eigenvalues --   -0.61314  -0.61047  -0.60993  -0.60851  -0.60632
  Beta  occ. eigenvalues --   -0.59948  -0.59797  -0.59065  -0.58187  -0.57999
  Beta  occ. eigenvalues --   -0.57461  -0.57199  -0.56471  -0.56072  -0.55836
  Beta  occ. eigenvalues --   -0.55412  -0.54821  -0.54748  -0.54340  -0.53815
  Beta  occ. eigenvalues --   -0.53268  -0.52427  -0.52183  -0.51828  -0.50961
  Beta  occ. eigenvalues --   -0.50700  -0.50168  -0.50129  -0.49942  -0.49679
  Beta  occ. eigenvalues --   -0.48684  -0.48482  -0.48114  -0.47636  -0.47146
  Beta  occ. eigenvalues --   -0.46898  -0.46310  -0.45975  -0.45694  -0.45280
  Beta  occ. eigenvalues --   -0.44809  -0.44574  -0.44245  -0.41625  -0.39675
  Beta  occ. eigenvalues --   -0.37676  -0.35927  -0.35624  -0.35525  -0.34939
  Beta  occ. eigenvalues --   -0.34755  -0.34118  -0.32674  -0.30852  -0.28635
  Beta virt. eigenvalues --    0.00758   0.03358   0.06315   0.07932   0.08213
  Beta virt. eigenvalues --    0.08334   0.09171   0.10772   0.12744   0.13871
  Beta virt. eigenvalues --    0.14123   0.14490   0.14952   0.15609   0.15868

 Mulliken charges and spin densities:
               1          2
     1  C    0.007180   0.000000
     2  C   -0.004715  -0.000000
     3  C    0.020170   0.000000
     4  C   -0.023764  -0.000000
     5  C    0.120695  -0.000000
     6  O   -0.245858   0.000000
     7  C    0.038439   0.000000
     8  C   -0.061237  -0.000000
     9  C   -0.202630   0.000000
    10  C    0.163016   0.000000
    11  F   -0.123139  -0.000000
    12  C   -0.000545  -0.000000
    13  C   -0.158620   0.000000
    14  S    0.186516   0.000000
    15  C    0.041934  -0.000000
    16  C   -0.008617   0.000000
    17  C    0.003883  -0.000000
    18  C    0.005613   0.000000
    19  C    0.128587  -0.000000
    20  O   -0.268529   0.000000
    21  C    0.043478   0.000000
    22  C   -0.051944   0.000000
    23  C   -0.166965  -0.000000
    24  C    0.123667   0.000000
    25  F   -0.132473   0.000000
    26  C    0.019643  -0.000000
    27  C   -0.161271  -0.000000
    28  S    0.189894  -0.000000
    29  C    0.043101   0.000000
    30  C   -0.012099  -0.000000
    31  C    0.008380   0.000000
    32  C    0.008050  -0.000000
    33  C    0.126978   0.000000
    34  O   -0.267244  -0.000000
    35  C    0.041388  -0.000000
    36  C   -0.051730  -0.000000
    37  C   -0.171430   0.000000
    38  C    0.104326  -0.000000
    39  F   -0.134753  -0.000000
    40  C    0.032645  -0.000000
    41  C   -0.143773   0.000000
    42  S    0.188036   0.000000
    43  H    0.011411   0.000000
    44  H    0.007609  -0.000000
    45  H    0.006264  -0.000000
    46  H    0.053160   0.000000
    47  H    0.051359  -0.000000
    48  H    0.065889  -0.000000
    49  H    0.013046   0.000000
    50  H    0.018257   0.000000
    51  H    0.008085  -0.000000
    52  H    0.016366   0.000000
    53  H    0.054672  -0.000000
    54  H    0.058558  -0.000000
    55  H    0.065155  -0.000000
    56  H    0.007068   0.000000
    57  H    0.022470  -0.000000
    58  H    0.000750  -0.000000
    59  H    0.015981   0.000000
    60  H    0.055416  -0.000000
    61  H    0.057865   0.000000
    62  H    0.067911   0.000000
    63  H    0.014271  -0.000000
    64  H    0.024487  -0.000000
    65  H    0.049666   0.000000
 Sum of Mulliken charges =  -0.00000   0.00000

 Dipole moment (field-independent basis, Debye):
    X=             -1.2056    Y=              4.3266    Z=             -0.8220  Tot=              4.5660
 Quadrupole moment (field-independent basis, Debye-Ang):
   XX=           -213.8794   YY=           -230.8893   ZZ=           -265.2449
   XY=              4.5745   XZ=             12.0667   YZ=             -8.8300

 Normal termination of Gaussian 16 at Sat Jul 25 03:18:54 2020.
