 Gaussian 16, Revision A.03,
 Gaussian 16:  EM64L-G16RevA.03 25-Dec-2016

 ---------------------------------------------------------------
 #P uLC-wPBE/cc-pVDZ iop(3/107=0487400000, 3/108=0487400000) opt
 ---------------------------------------------------------------

 -----------------
 H51 C77 N14 O7 F7
 -----------------
 Symbolic Z-matrix:
 Charge =  0 Multiplicity = 1

 SCF Done:  E(ULC-wPBE) =  -4953.41464229     A.U. after   16 cycles
 SCF Done:  E(ULC-wPBE) =  -4953.53438685     A.U. after   13 cycles
 SCF Done:  E(ULC-wPBE) =  -4953.67276928     A.U. after   14 cycles
 SCF Done:  E(ULC-wPBE) =  -4953.72430477     A.U. after   15 cycles
 SCF Done:  E(ULC-wPBE) =  -4953.73696232     A.U. after   15 cycles
 SCF Done:  E(ULC-wPBE) =  -4953.74112409     A.U. after   14 cycles
 SCF Done:  E(ULC-wPBE) =  -4953.74470768     A.U. after   15 cycles
 SCF Done:  E(ULC-wPBE) =  -4953.74623636     A.U. after   15 cycles
 SCF Done:  E(ULC-wPBE) =  -4953.74859688     A.U. after   15 cycles
 SCF Done:  E(ULC-wPBE) =  -4953.74964470     A.U. after   15 cycles
 SCF Done:  E(ULC-wPBE) =  -4953.75498846     A.U. after   16 cycles
 SCF Done:  E(ULC-wPBE) =  -4953.75495398     A.U. after   12 cycles
 SCF Done:  E(ULC-wPBE) =  -4953.75502002     A.U. after   12 cycles
 SCF Done:  E(ULC-wPBE) =  -4953.75501971     A.U. after   10 cycles
 SCF Done:  E(ULC-wPBE) =  -4953.75502572     A.U. after   11 cycles
 SCF Done:  E(ULC-wPBE) =  -4953.75502609     A.U. after   10 cycles
 SCF Done:  E(ULC-wPBE) =  -4953.75502643     A.U. after   10 cycles
 SCF Done:  E(ULC-wPBE) =  -4953.75502661     A.U. after    7 cycles
 SCF Done:  E(ULC-wPBE) =  -4953.75502658     A.U. after    7 cycles
 SCF Done:  E(ULC-wPBE) =  -4953.75502656     A.U. after    6 cycles
 Optimization completed.
    -- Stationary point found.

                         Standard orientation:
 ---------------------------------------------------------------------
 Center     Atomic      Atomic             Coordinates (Angstroms)
 Number     Number       Type             X           Y           Z
 ---------------------------------------------------------------------
      1          6           0      -28.544016    1.123706   -1.659247
      2          6           0      -27.931882    2.250814   -1.143092
      3          6           0      -26.592889    2.165271   -0.842087
      4          9           0      -25.954668    3.235148   -0.363662
      5          6           0      -25.893558    0.986607   -1.052005
      6          7           0      -26.489509   -0.083625   -1.554480
      7          6           0      -27.779026   -0.014654   -1.847022
      8          6           0      -24.436251    0.891630   -0.763672
      9          7           0      -23.649861    0.560504   -1.766656
     10          6           0      -22.345533    0.456642   -1.554956
     11          6           0      -21.755889    0.681604   -0.321785
     12          6           0      -22.586375    1.016833    0.743967
     13          6           0      -23.947009    1.119692    0.529328
     14          8           0      -24.857124    1.414040    1.474143
     15          6           0      -24.400295    1.709819    2.766800
     16          6           0      -20.294811    0.562120   -0.141974
     17          6           0      -19.746141   -0.056320    0.972224
     18          6           0      -18.377315   -0.132940    1.072162
     19          9           0      -17.834497   -0.708780    2.142397
     20          6           0      -17.565785    0.392075    0.077609
     21          7           0      -18.092865    0.992725   -0.979049
     22          6           0      -19.407397    1.073340   -1.084211
     23          6           0      -16.086939    0.260709    0.147799
     24          7           0      -15.605187   -0.960497    0.264698
     25          6           0      -14.292194   -1.138842    0.285519
     26          6           0      -13.385905   -0.096574    0.189610
     27          6           0      -13.890300    1.196949    0.088070
     28          6           0      -15.258997    1.390832    0.075695
     29          8           0      -15.862781    2.586945    0.014170
     30          6           0      -15.060014    3.730311   -0.110320
     31          6           0      -11.930735   -0.348143    0.209628
     32          6           0      -11.364509   -1.395421   -0.502807
     33          6           0      -10.002636   -1.572446   -0.438888
     34          9           0       -9.449190   -2.582488   -1.102029
     35          6           0       -9.212524   -0.718673    0.317782
     36          7           0       -9.760786    0.270319    1.009787
     37          6           0      -11.069241    0.448152    0.956294
     38          6           0       -7.735341   -0.866945    0.351407
     39          7           0       -7.116179   -0.931012   -0.819463
     40          6           0       -5.800143   -1.033835   -0.841211
     41          6           0       -5.011614   -1.090219    0.303584
     42          6           0       -5.666988   -1.047964    1.524535
     43          6           0       -7.044648   -0.936215    1.559682
     44          8           0       -7.711248   -0.954942    2.740243
     45          6           0       -7.676076    0.260715    3.459890
     46          6           0       -3.542414   -1.209730    0.215644
     47          6           0       -2.830345   -2.059426    1.050119
     48          6           0       -1.463508   -2.116984    0.918621
     49          9           0       -0.774131   -2.950696    1.690897
     50          6           0       -0.810781   -1.340452   -0.029019
     51          7           0       -1.497156   -0.537263   -0.829386
     52          6           0       -2.811938   -0.471910   -0.709319
     53          6           0        0.668857   -1.361619   -0.151783
     54          7           0        1.360761   -1.183119    0.965450
     55          6           0        2.679332   -1.164112    0.904135
     56          6           0        3.399622   -1.333430   -0.274267
     57          6           0        2.670792   -1.543950   -1.434490
     58          6           0        1.289046   -1.560706   -1.383501
     59          8           0        0.558290   -1.824822   -2.494752
     60          6           0        0.431707   -0.739878   -3.391695
     61          6           0        4.876146   -1.308623   -0.277272
     62          6           0        5.616983   -2.214325   -1.023628
     63          6           0        6.987101   -2.130592   -0.974540
     64          9           0        7.720664   -2.977471   -1.697478
     65          6           0        7.613252   -1.169263   -0.196440
     66          7           0        6.903102   -0.298224    0.503000
     67          6           0        5.583826   -0.367370    0.463607
     68          6           0        9.095326   -1.048454   -0.151067
     69          7           0        9.610096    0.112474   -0.499890
     70          6           0       10.925110    0.271380   -0.458041
     71          6           0       11.798282   -0.727004   -0.057776
     72          6           0       11.256741   -1.953064    0.317727
     73          6           0        9.886377   -2.122936    0.276798
     74          8           0        9.235813   -3.239369    0.646109
     75          6           0        9.995111   -4.356243    1.026819
     76          6           0       13.256885   -0.497575   -0.028194
     77          6           0       14.154444   -1.453789   -0.480869
     78          6           0       15.498917   -1.173283   -0.426066
     79          9           0       16.368142   -2.091073   -0.838285
     80          6           0       15.947631    0.043884    0.067316
     81          7           0       15.086111    0.947581    0.512597
     82          6           0       13.790988    0.687555    0.466101
     83          6           0       17.393738    0.380519    0.083821
     84          7           0       18.055722    0.217487   -1.054036
     85          6           0       19.336761    0.532254   -1.096957
     86          6           0       20.050074    1.020919   -0.006778
     87          6           0       19.357993    1.166208    1.185551
     88          6           0       18.014231    0.843590    1.241957
     89          8           0       17.332446    0.920062    2.411748
     90          6           0       16.953625    2.227656    2.791552
     91          6           0       21.486380    1.346260   -0.116222
     92          6           0       21.999967    2.005017   -1.224389
     93          6           0       23.347343    2.275288   -1.257262
     94          9           0       23.860686    2.894631   -2.317289
     95          6           0       24.170739    1.901870   -0.205401
     96          7           0       23.678281    1.261610    0.844702
     97          6           0       22.384784    0.995682    0.886123
     98          6           0       25.618130    2.243658   -0.208634
     99          7           0       25.921785    3.522555   -0.311972
    100          6           0       27.199569    3.882422   -0.280616
    101          6           0       28.224187    2.970031   -0.147375
    102          6           0       27.918287    1.620802   -0.056078
    103          6           0       26.588932    1.238343   -0.094254
    104          8           0       26.149960   -0.030456   -0.053101
    105          6           0       27.097228   -1.052367    0.099152
    106          1           0      -29.599944    1.129767   -1.916856
    107          1           0      -28.463885    3.184229   -0.978351
    108          1           0      -28.227231   -0.920500   -2.254920
    109          1           0      -21.739237    0.162790   -2.411375
    110          1           0      -22.156662    1.207063    1.723362
    111          1           0      -23.731070    2.580157    2.766414
    112          1           0      -23.883706    0.852163    3.217723
    113          1           0      -25.286507    1.941970    3.360137
    114          1           0      -20.361940   -0.494138    1.754153
    115          1           0      -19.788523    1.590060   -1.965051
    116          1           0      -13.945708   -2.165727    0.400310
    117          1           0      -13.205394    2.035646    0.004118
    118          1           0      -14.400728    3.858161    0.758708
    119          1           0      -14.454510    3.698203   -1.025481
    120          1           0      -15.743575    4.579319   -0.166231
    121          1           0      -11.961027   -2.065864   -1.116481
    122          1           0      -11.467582    1.265454    1.557796
    123          1           0       -5.339144   -1.097074   -1.827232
    124          1           0       -5.118410   -1.103649    2.462819
    125          1           0       -8.197523    0.081415    4.402885
    126          1           0       -8.191681    1.046896    2.897404
    127          1           0       -6.643486    0.567236    3.675022
    128          1           0       -3.320503   -2.694983    1.783723
    129          1           0       -3.321445    0.223475   -1.376228
    130          1           0        3.203102   -1.026468    1.850388
    131          1           0        3.164477   -1.699332   -2.391830
    132          1           0       -0.124493   -1.111102   -4.255499
    133          1           0       -0.124085    0.077417   -2.919090
    134          1           0        1.414838   -0.382217   -3.726264
    135          1           0        5.149495   -2.986963   -1.629250
    136          1           0        5.047291    0.382988    1.044599
    137          1           0       11.304923    1.240303   -0.781062
    138          1           0       11.910696   -2.747846    0.665205
    139          1           0       10.593066   -4.149667    1.924128
    140          1           0        9.281170   -5.150735    1.250965
    141          1           0       10.656005   -4.686819    0.214899
    142          1           0       13.827591   -2.406882   -0.889678
    143          1           0       13.130051    1.459502    0.859814
    144          1           0       19.839530    0.369780   -2.050955
    145          1           0       19.851957    1.529594    2.084347
    146          1           0       17.828141    2.886214    2.880242
    147          1           0       16.244292    2.640548    2.065834
    148          1           0       16.471878    2.142856    3.768319
    149          1           0       21.371447    2.324177   -2.052157
    150          1           0       22.034744    0.453727    1.765214
    151          1           0       27.404350    4.948958   -0.364973
    152          1           0       29.259032    3.302255   -0.120564
    153          1           0       28.713412    0.886974    0.036228
    154          1           0       26.536255   -1.988239    0.131014
    155          1           0       27.797967   -1.084115   -0.746066
    156          1           0       27.661290   -0.941947    1.034761
 ---------------------------------------------------------------------

 Alpha virt. eigenvalues --    0.57764   0.57873   0.57986   0.58251   0.58333
 Alpha virt. eigenvalues --    0.58382   0.58444   0.58503   0.58586   0.58657
 Alpha virt. eigenvalues --    0.58861   0.59144   0.59237   0.59360   0.59543

  Beta  occ. eigenvalues --  -24.55544 -24.55385 -24.55382 -24.55317 -24.55175
  Beta  occ. eigenvalues --  -24.55059 -24.54774 -19.07359 -19.07121 -19.07026
  Beta  occ. eigenvalues --  -19.06371 -19.04905 -19.04764 -19.04573 -14.28030
  Beta  occ. eigenvalues --  -14.27931 -14.27781 -14.27252 -14.27159 -14.27157
  Beta  occ. eigenvalues --  -14.27102 -14.27083 -14.26938 -14.26938 -14.26862
  Beta  occ. eigenvalues --  -14.26616 -14.26555 -14.26228 -10.26918 -10.26912
  Beta  occ. eigenvalues --  -10.26804 -10.26632 -10.26513 -10.26141 -10.26057
  Beta  occ. eigenvalues --  -10.25038 -10.25028 -10.24741 -10.24197 -10.24143
  Beta  occ. eigenvalues --  -10.23996 -10.23792 -10.23446 -10.23305 -10.23239
  Beta  occ. eigenvalues --  -10.22744 -10.22531 -10.22498 -10.22361 -10.22063
  Beta  occ. eigenvalues --  -10.22062 -10.21998 -10.21905 -10.21769 -10.21715
  Beta  occ. eigenvalues --  -10.21711 -10.21627 -10.21590 -10.21585 -10.21499
  Beta  occ. eigenvalues --  -10.21497 -10.21381 -10.21335 -10.21323 -10.21228
  Beta  occ. eigenvalues --  -10.21146 -10.21032 -10.21009 -10.20988 -10.20888
  Beta  occ. eigenvalues --  -10.20870 -10.20738 -10.20720 -10.20719 -10.20577
  Beta  occ. eigenvalues --  -10.20476 -10.20398 -10.20395 -10.20373 -10.20371
  Beta  occ. eigenvalues --  -10.20258 -10.20256 -10.20226 -10.20211 -10.20178
  Beta  occ. eigenvalues --  -10.20170 -10.20147 -10.20090 -10.20048 -10.19995
  Beta  occ. eigenvalues --  -10.19957 -10.19901 -10.19852 -10.19786 -10.19638
  Beta  occ. eigenvalues --  -10.19609 -10.19567 -10.19550 -10.19492 -10.19492
  Beta  occ. eigenvalues --  -10.19370 -10.19355 -10.18764 -10.18727 -10.18212
  Beta  occ. eigenvalues --   -1.40478  -1.40477  -1.40475  -1.40393  -1.40196
  Beta  occ. eigenvalues --   -1.39953  -1.39806  -1.27305  -1.27116  -1.27066
  Beta  occ. eigenvalues --   -1.26425  -1.25009  -1.24858  -1.24661  -1.16512
  Beta  occ. eigenvalues --   -1.16342  -1.16258  -1.16056  -1.16018  -1.15598
  Beta  occ. eigenvalues --   -1.15511  -1.14685  -1.14406  -1.14270  -1.14118
  Beta  occ. eigenvalues --   -1.13855  -1.13434  -1.13343  -1.04478  -1.04230
  Beta  occ. eigenvalues --   -1.03937  -1.03582  -1.03404  -1.03250  -1.00006
  Beta  occ. eigenvalues --   -0.99473  -0.99319  -0.99174  -0.99127  -0.98922
  Beta  occ. eigenvalues --   -0.98854  -0.98831  -0.98676  -0.98460  -0.98424
  Beta  occ. eigenvalues --   -0.98154  -0.97894  -0.97737  -0.97652  -0.95946
  Beta  occ. eigenvalues --   -0.95274  -0.94615  -0.93825  -0.92897  -0.92278
  Beta  occ. eigenvalues --   -0.91700  -0.89675  -0.89538  -0.89138  -0.88642
  Beta  occ. eigenvalues --   -0.87791  -0.87734  -0.87529  -0.86865  -0.86084
  Beta  occ. eigenvalues --   -0.85189  -0.84192  -0.83186  -0.82894  -0.82748
  Beta  occ. eigenvalues --   -0.82510  -0.82146  -0.82012  -0.81924  -0.81486
  Beta  occ. eigenvalues --   -0.80977  -0.80495  -0.79894  -0.79662  -0.79534
  Beta  occ. eigenvalues --   -0.78947  -0.78845  -0.78412  -0.78374  -0.77821
  Beta  occ. eigenvalues --   -0.77752  -0.77483  -0.76996  -0.76753  -0.76534
  Beta  occ. eigenvalues --   -0.76323  -0.72308  -0.72284  -0.71934  -0.71676
  Beta  occ. eigenvalues --   -0.71345  -0.71088  -0.70846  -0.70440  -0.70216
  Beta  occ. eigenvalues --   -0.70186  -0.69950  -0.69831  -0.69450  -0.69312
  Beta  occ. eigenvalues --   -0.69187  -0.68831  -0.68755  -0.68481  -0.68160
  Beta  occ. eigenvalues --   -0.67836  -0.67670  -0.67267  -0.67109  -0.66794
  Beta  occ. eigenvalues --   -0.66623  -0.66611  -0.66468  -0.66305  -0.66240
  Beta  occ. eigenvalues --   -0.66203  -0.65826  -0.65568  -0.65453  -0.65431
  Beta  occ. eigenvalues --   -0.65231  -0.64327  -0.64240  -0.64105  -0.64028
  Beta  occ. eigenvalues --   -0.63989  -0.63687  -0.63504  -0.63461  -0.63351
  Beta  occ. eigenvalues --   -0.63307  -0.63197  -0.63155  -0.63073  -0.62707
  Beta  occ. eigenvalues --   -0.62658  -0.62588  -0.62158  -0.62063  -0.61976
  Beta  occ. eigenvalues --   -0.61802  -0.61513  -0.59634  -0.59297  -0.59173
  Beta  occ. eigenvalues --   -0.59054  -0.58931  -0.58890  -0.58766  -0.58708
  Beta  occ. eigenvalues --   -0.58371  -0.58200  -0.58092  -0.57910  -0.57905
  Beta  occ. eigenvalues --   -0.57645  -0.57516  -0.57409  -0.57233  -0.57079
  Beta  occ. eigenvalues --   -0.56892  -0.56848  -0.56730  -0.56645  -0.56482
  Beta  occ. eigenvalues --   -0.56452  -0.56378  -0.56352  -0.55944  -0.55876
  Beta  occ. eigenvalues --   -0.55751  -0.55659  -0.55490  -0.55377  -0.55320
  Beta  occ. eigenvalues --   -0.55252  -0.55088  -0.55017  -0.54926  -0.54833
  Beta  occ. eigenvalues --   -0.54734  -0.54538  -0.54450  -0.54322  -0.54237
  Beta  occ. eigenvalues --   -0.54001  -0.53933  -0.53815  -0.53806  -0.53527
  Beta  occ. eigenvalues --   -0.53322  -0.53043  -0.52098  -0.52023  -0.51951
  Beta  occ. eigenvalues --   -0.51777  -0.51627  -0.51105  -0.51063  -0.49172
  Beta  occ. eigenvalues --   -0.49092  -0.49002  -0.48787  -0.48698  -0.48688
  Beta  occ. eigenvalues --   -0.48575  -0.48554  -0.48340  -0.48020  -0.47750
  Beta  occ. eigenvalues --   -0.45314  -0.44860  -0.44607  -0.44053  -0.43833
  Beta  occ. eigenvalues --   -0.43743  -0.43233  -0.43038  -0.42854  -0.41598
  Beta  occ. eigenvalues --   -0.41324  -0.41055  -0.41006  -0.40759  -0.40621
  Beta  occ. eigenvalues --   -0.40459  -0.40423  -0.40304  -0.40270  -0.40187
  Beta  occ. eigenvalues --   -0.40065  -0.40050  -0.39762  -0.39749  -0.39211
  Beta  occ. eigenvalues --   -0.39165  -0.38854  -0.38827  -0.38818  -0.38515
  Beta  occ. eigenvalues --   -0.38362  -0.38227  -0.38165  -0.37835  -0.37545
  Beta  occ. eigenvalues --   -0.37286  -0.37187  -0.37138  -0.35973  -0.35231
  Beta  occ. eigenvalues --   -0.34567  -0.33994  -0.33474  -0.32914  -0.32779
  Beta virt. eigenvalues --    0.00265   0.00882   0.01609   0.02590   0.03514
  Beta virt. eigenvalues --    0.04493   0.05260   0.05746   0.05901   0.05987
  Beta virt. eigenvalues --    0.06107   0.06130   0.06140   0.06407   0.06525

 Mulliken charges and spin densities:
               1          2
     1  C   -0.066679   0.000000
     2  C    0.029623  -0.000000
     3  C    0.133984   0.000000
     4  F   -0.131985  -0.000000
     5  C    0.025376   0.000000
     6  N   -0.182107  -0.000000
     7  C    0.074617  -0.000000
     8  C    0.049282  -0.000000
     9  N   -0.172086   0.000000
    10  C    0.079942   0.000000
    11  C   -0.087499  -0.000000
    12  C    0.006417  -0.000000
    13  C    0.139187   0.000000
    14  O   -0.259222  -0.000000
    15  C    0.030379   0.000000
    16  C   -0.086369   0.000000
    17  C    0.040765   0.000000
    18  C    0.144779  -0.000000
    19  F   -0.120608   0.000000
    20  C    0.031960  -0.000000
    21  N   -0.177902   0.000000
    22  C    0.084003  -0.000000
    23  C    0.038762  -0.000000
    24  N   -0.177005   0.000000
    25  C    0.077122  -0.000000
    26  C   -0.087044   0.000000
    27  C    0.005033  -0.000000
    28  C    0.140181   0.000000
    29  O   -0.246293   0.000000
    30  C    0.029028   0.000000
    31  C   -0.089501   0.000000
    32  C    0.050531  -0.000000
    33  C    0.143301   0.000000
    34  F   -0.115411  -0.000000
    35  C    0.046085  -0.000000
    36  N   -0.197488  -0.000000
    37  C    0.091187   0.000000
    38  C    0.053975   0.000000
    39  N   -0.190246   0.000000
    40  C    0.082255  -0.000000
    41  C   -0.084978   0.000000
    42  C    0.099778   0.000000
    43  C    0.044348  -0.000000
    44  O   -0.272877  -0.000000
    45  C    0.051572  -0.000000
    46  C   -0.085796   0.000000
    47  C    0.045899  -0.000000
    48  C    0.142477   0.000000
    49  F   -0.116073  -0.000000
    50  C    0.047721   0.000000
    51  N   -0.197153   0.000000
    52  C    0.094341  -0.000000
    53  C    0.054226  -0.000000
    54  N   -0.191566   0.000000
    55  C    0.082571  -0.000000
    56  C   -0.083083   0.000000
    57  C    0.099664  -0.000000
    58  C    0.044003   0.000000
    59  O   -0.273517   0.000000
    60  C    0.051187  -0.000000
    61  C   -0.087332   0.000000
    62  C    0.044946  -0.000000
    63  C    0.145478  -0.000000
    64  F   -0.128195   0.000000
    65  C    0.029009   0.000000
    66  N   -0.177869   0.000000
    67  C    0.087285  -0.000000
    68  C    0.045046   0.000000
    69  N   -0.171993  -0.000000
    70  C    0.080589  -0.000000
    71  C   -0.086927  -0.000000
    72  C    0.007122   0.000000
    73  C    0.138630  -0.000000
    74  O   -0.259622  -0.000000
    75  C    0.029523   0.000000
    76  C   -0.090684   0.000000
    77  C    0.045599   0.000000
    78  C    0.142070   0.000000
    79  F   -0.117006   0.000000
    80  C    0.047307  -0.000000
    81  N   -0.196749  -0.000000
    82  C    0.095510   0.000000
    83  C    0.053454  -0.000000
    84  N   -0.190988   0.000000
    85  C    0.080843   0.000000
    86  C   -0.082461  -0.000000
    87  C    0.099973   0.000000
    88  C    0.043587  -0.000000
    89  O   -0.274002   0.000000
    90  C    0.051405   0.000000
    91  C   -0.085325   0.000000
    92  C    0.042690  -0.000000
    93  C    0.145375   0.000000
    94  F   -0.119869  -0.000000
    95  C    0.036060  -0.000000
    96  N   -0.177535   0.000000
    97  C    0.080388  -0.000000
    98  C    0.032979  -0.000000
    99  N   -0.183188  -0.000000
   100  C    0.066554   0.000000
   101  C   -0.062382   0.000000
   102  C   -0.019576  -0.000000
   103  C    0.129443   0.000000
   104  O   -0.247705  -0.000000
   105  C    0.028673   0.000000
   106  H    0.030270   0.000000
   107  H    0.040008  -0.000000
   108  H    0.033883   0.000000
   109  H    0.029175   0.000000
   110  H    0.021652   0.000000
   111  H    0.059430   0.000000
   112  H    0.055912  -0.000000
   113  H    0.074485  -0.000000
   114  H    0.031897  -0.000000
   115  H    0.032597   0.000000
   116  H    0.027061  -0.000000
   117  H    0.024391  -0.000000
   118  H    0.053601   0.000000
   119  H    0.060970  -0.000000
   120  H    0.075661  -0.000000
   121  H    0.039507   0.000000
   122  H    0.026731  -0.000000
   123  H    0.031985  -0.000000
   124  H    0.023904   0.000000
   125  H    0.061937  -0.000000
   126  H    0.057074   0.000000
   127  H    0.038048  -0.000000
   128  H    0.037223   0.000000
   129  H    0.031462   0.000000
   130  H    0.032475   0.000000
   131  H    0.022930   0.000000
   132  H    0.061506  -0.000000
   133  H    0.058439   0.000000
   134  H    0.038371   0.000000
   135  H    0.034697  -0.000000
   136  H    0.033453   0.000000
   137  H    0.028731  -0.000000
   138  H    0.023458  -0.000000
   139  H    0.059990  -0.000000
   140  H    0.075916  -0.000000
   141  H    0.057392  -0.000000
   142  H    0.032932  -0.000000
   143  H    0.033314  -0.000000
   144  H    0.029968  -0.000000
   145  H    0.025356   0.000000
   146  H    0.038579   0.000000
   147  H    0.058440  -0.000000
   148  H    0.060933   0.000000
   149  H    0.035398  -0.000000
   150  H    0.029631  -0.000000
   151  H    0.027971  -0.000000
   152  H    0.024679  -0.000000
   153  H    0.028525  -0.000000
   154  H    0.074099  -0.000000
   155  H    0.053845  -0.000000
   156  H    0.056909  -0.000000
 Sum of Mulliken charges =  -0.00000   0.00000

 Dipole moment (field-independent basis, Debye):
    X=              0.0051    Y=              0.9844    Z=              4.4899  Tot=              4.5966
 Quadrupole moment (field-independent basis, Debye-Ang):
   XX=           -368.1067   YY=           -561.9740   ZZ=           -570.9206
   XY=           -146.0231   XZ=            -54.8981   YZ=              6.2907

 Normal termination of Gaussian 16 at Sat Jul 25 08:55:51 2020.
