 Gaussian 16, Revision A.03,
 Gaussian 16:  EM64L-G16RevA.03 25-Dec-2016

 ---------------------------------------------------------------
 #P uLC-wPBE/cc-pVDZ iop(3/107=0287300000, 3/108=0287300000) opt
 ---------------------------------------------------------------

 -------------------
 H44 C70 S7 N7 O7 F7
 -------------------
 Symbolic Z-matrix:
 Charge =  0 Multiplicity = 1

 SCF Done:  E(ULC-wPBE) =  -7085.63498907     A.U. after   16 cycles
 SCF Done:  E(ULC-wPBE) =  -7085.74345030     A.U. after   13 cycles
 SCF Done:  E(ULC-wPBE) =  -7085.86668095     A.U. after   14 cycles
 SCF Done:  E(ULC-wPBE) =  -7085.91140771     A.U. after   15 cycles
 SCF Done:  E(ULC-wPBE) =  -7085.92192821     A.U. after   15 cycles
 SCF Done:  E(ULC-wPBE) =  -7085.92751927     A.U. after   15 cycles
 SCF Done:  E(ULC-wPBE) =  -7085.93291795     A.U. after   15 cycles
 SCF Done:  E(ULC-wPBE) =  -7085.93629893     A.U. after   13 cycles
 SCF Done:  E(ULC-wPBE) =  -7085.93884524     A.U. after   15 cycles
 SCF Done:  E(ULC-wPBE) =  -7085.94020272     A.U. after   16 cycles
 SCF Done:  E(ULC-wPBE) =  -7085.94307379     A.U. after   11 cycles
 SCF Done:  E(ULC-wPBE) =  -7085.94307500     A.U. after   11 cycles
 SCF Done:  E(ULC-wPBE) =  -7085.94307722     A.U. after   11 cycles
 SCF Done:  E(ULC-wPBE) =  -7085.94307858     A.U. after   11 cycles
 SCF Done:  E(ULC-wPBE) =  -7085.94307936     A.U. after   10 cycles
 SCF Done:  E(ULC-wPBE) =  -7085.94307958     A.U. after   10 cycles
 SCF Done:  E(ULC-wPBE) =  -7085.94307987     A.U. after    7 cycles
 SCF Done:  E(ULC-wPBE) =  -7085.94307992     A.U. after    6 cycles
 SCF Done:  E(ULC-wPBE) =  -7085.94307979     A.U. after    7 cycles
 SCF Done:  E(ULC-wPBE) =  -7085.94307983     A.U. after    6 cycles
 Optimization completed.
    -- Stationary point found.

                         Standard orientation:
 ---------------------------------------------------------------------
 Center     Atomic      Atomic             Coordinates (Angstroms)
 Number     Number       Type             X           Y           Z
 ---------------------------------------------------------------------
      1          6           0      -25.800614    1.655135    0.633921
      2          6           0      -25.073061    0.617848    0.062835
      3          7           0      -23.739194    0.625820   -0.017833
      4          6           0      -23.064854    1.669680    0.475489
      5          6           0      -23.716487    2.742103    1.132313
      6          8           0      -22.926419    3.687064    1.690043
      7          6           0      -23.550974    4.795691    2.309757
      8          6           0      -25.110947    2.734335    1.186094
      9          6           0      -21.597302    1.596701    0.350165
     10          6           0      -20.629480    2.553810    0.153800
     11          9           0      -20.878721    3.862838    0.008395
     12          6           0      -19.305156    2.055523    0.046860
     13          6           0      -19.266264    0.686074    0.148915
     14         16           0      -20.853048    0.028746    0.370651
     15          6           0      -18.085107   -0.190141    0.083595
     16          6           0      -16.840121    0.247122    0.547376
     17          7           0      -15.741478   -0.506239    0.521693
     18          6           0      -15.808178   -1.751622    0.039427
     19          6           0      -17.009381   -2.273484   -0.499034
     20          8           0      -16.945837   -3.501286   -1.059787
     21          6           0      -18.143277   -4.067414   -1.561776
     22          6           0      -18.154846   -1.481735   -0.456374
     23          6           0      -14.543718   -2.507321    0.045179
     24          6           0      -14.255296   -3.842388    0.209437
     25          9           0      -15.171964   -4.794255    0.434689
     26          6           0      -12.873767   -4.162993    0.187701
     27          6           0      -12.092138   -3.045130    0.019640
     28         16           0      -13.061228   -1.616490   -0.106104
     29          6           0      -10.622933   -2.978108   -0.045937
     30          6           0       -9.912633   -1.865284    0.414912
     31          7           0       -8.582507   -1.783217    0.395686
     32          6           0       -7.867192   -2.807265   -0.080278
     33          6           0       -8.491127   -3.957869   -0.621929
     34          8           0       -7.681648   -4.884986   -1.180394
     35          6           0       -8.273216   -6.062204   -1.698474
     36          6           0       -9.881042   -4.038592   -0.585312
     37          6           0       -6.405500   -2.626716   -0.068783
     38          6           0       -5.358359   -3.502053    0.103951
     39          9           0       -5.499989   -4.814921    0.333978
     40          6           0       -4.070337   -2.907581    0.087922
     41          6           0       -4.139124   -1.546367   -0.086237
     42         16           0       -5.781142   -1.014362   -0.224677
     43          6           0       -3.024331   -0.587229   -0.151986
     44          6           0       -1.780657   -0.965199   -0.668223
     45          7           0       -0.741639   -0.136118   -0.760774
     46          6           0       -0.871746    1.131037   -0.354037
     47          6           0       -2.073420    1.600891    0.229996
     48          8           0       -2.067300    2.863507    0.709993
     49          6           0       -3.272052    3.378612    1.248646
     50          6           0       -3.156874    0.728999    0.311527
     51          6           0        0.328815    1.973329   -0.491918
     52          6           0        0.504688    3.311381   -0.758635
     53          9           0       -0.494068    4.180131   -0.966281
     54          6           0        1.856458    3.733548   -0.847957
     55          6           0        2.730515    2.690202   -0.661855
     56         16           0        1.882453    1.201679   -0.404089
     57          6           0        4.201448    2.732312   -0.683597
     58          6           0        4.886602    3.663201   -1.470536
     59          7           0        6.213410    3.759368   -1.516097
     60          6           0        6.965018    2.926806   -0.788360
     61          6           0        6.364436    1.932917    0.025446
     62          8           0        7.204381    1.124736    0.720536
     63          6           0        6.643772    0.120792    1.549220
     64          6           0        4.977750    1.847390    0.077296
     65          6           0        8.423820    3.112400   -0.886110
     66          6           0        9.086913    4.140233   -1.530171
     67          9           0        8.486537    5.157316   -2.152228
     68          6           0       10.501214    4.063511   -1.500975
     69          6           0       10.938415    2.952706   -0.823444
     70         16           0        9.610888    2.027427   -0.210022
     71          6           0       12.327774    2.535112   -0.577766
     72          6           0       13.346579    3.478911   -0.414810
     73          7           0       14.622585    3.161606   -0.208064
     74          6           0       14.984073    1.876657   -0.130871
     75          6           0       14.021123    0.844712   -0.269030
     76          8           0       14.476983   -0.430626   -0.178004
     77          6           0       13.546497   -1.491548   -0.304838
     78          6           0       12.692487    1.183894   -0.498716
     79          6           0       16.415329    1.615857    0.105291
     80          6           0       17.401051    2.555882    0.342700
     81          9           0       17.194549    3.872983    0.407263
     82          6           0       18.706884    2.035580    0.519340
     83          6           0       18.730385    0.667465    0.413395
     84         16           0       17.148378    0.032328    0.117475
     85          6           0       19.893614   -0.225568    0.542186
     86          6           0       20.940466    0.085256    1.415747
     87          7           0       22.036967   -0.661438    1.542675
     88          6           0       22.157562   -1.781502    0.823094
     89          6           0       21.119157   -2.226741   -0.030750
     90          8           0       21.290500   -3.427903   -0.627121
     91          6           0       20.294636   -3.871148   -1.529735
     92          6           0       19.994540   -1.419340   -0.185842
     93          6           0       23.400277   -2.546949    1.026882
     94          6           0       24.170222   -3.305619    0.176189
     95          9           0       23.901564   -3.491583   -1.124839
     96          6           0       25.341071   -3.859662    0.762533
     97          6           0       25.452790   -3.495050    2.075831
     98         16           0       24.163312   -2.482106    2.585819
     99          1           0      -26.894380    1.620068    0.663869
    100          1           0      -25.576945   -0.262633   -0.355893
    101          1           0      -24.177614    5.361894    1.594603
    102          1           0      -24.169933    4.485994    3.173657
    103          1           0      -22.734737    5.442164    2.663531
    104          1           0      -25.659694    3.548527    1.667172
    105          1           0      -18.440273    2.695235   -0.141631
    106          1           0      -16.729328    1.249541    0.979608
    107          1           0      -17.871294   -5.066951   -1.930661
    108          1           0      -18.557894   -3.471299   -2.396979
    109          1           0      -18.908347   -4.168451   -0.768924
    110          1           0      -19.100003   -1.842173   -0.872437
    111          1           0      -12.495399   -5.176386    0.339787
    112          1           0      -10.443695   -1.002192    0.837549
    113          1           0       -8.819469   -6.621204   -0.915051
    114          1           0       -7.441318   -6.679237   -2.067763
    115          1           0       -8.960826   -5.838995   -2.536563
    116          1           0      -10.403884   -4.900655   -1.007586
    117          1           0       -3.150081   -3.474301    0.244897
    118          1           0       -1.621639   -1.983609   -1.044462
    119          1           0       -4.086716    3.372148    0.500107
    120          1           0       -3.052711    4.417320    1.535009
    121          1           0       -3.593025    2.813668    2.144541
    122          1           0       -4.098758    1.048986    0.766337
    123          1           0        2.146113    4.771108   -1.027342
    124          1           0        4.332181    4.359249   -2.113181
    125          1           0        6.039207   -0.596858    0.963289
    126          1           0        6.019583    0.560023    2.349874
    127          1           0        7.495486   -0.406312    2.003187
    128          1           0        4.486541    1.110508    0.719096
    129          1           0       11.145776    4.795836   -1.991575
    130          1           0       13.115029    4.551673   -0.439178
    131          1           0       13.061884   -1.488841   -1.299381
    132          1           0       12.770687   -1.444542    0.482360
    133          1           0       14.126842   -2.418145   -0.186345
    134          1           0       11.932714    0.409500   -0.637089
    135          1           0       19.580734    2.668616    0.687138
    136          1           0       20.884852    0.977336    2.052377
    137          1           0       19.317831   -4.006044   -1.026667
    138          1           0       20.643446   -4.842501   -1.909331
    139          1           0       20.174881   -3.171843   -2.378994
    140          1           0       19.190211   -1.703887   -0.870247
    141          1           0       26.052430   -4.480674    0.213989
    142          1           0       26.245056   -3.765038    2.776673
 ---------------------------------------------------------------------

 Alpha virt. eigenvalues --    0.32452   0.32768   0.33220   0.33540   0.33832
 Alpha virt. eigenvalues --    0.33971   0.34371   0.34760   0.34998   0.35526
 Alpha virt. eigenvalues --    0.35668   0.35727   0.35959   0.36091   0.36552

  Beta  occ. eigenvalues --  -88.26481 -88.26461 -88.26455 -88.26438 -88.26425
  Beta  occ. eigenvalues --  -88.26314 -88.25691 -24.44560 -24.44540 -24.44500
  Beta  occ. eigenvalues --  -24.44352 -24.43871 -24.43758 -24.43706 -18.97818
  Beta  occ. eigenvalues --  -18.97774 -18.97127 -18.97044 -18.97028 -18.96903
  Beta  occ. eigenvalues --  -18.96704 -14.16458 -14.16421 -14.16366 -14.16272
  Beta  occ. eigenvalues --  -14.15977 -14.15731 -14.15708 -10.14591 -10.14582
  Beta  occ. eigenvalues --  -10.14539 -10.14427 -10.14215 -10.14174 -10.13860
  Beta  occ. eigenvalues --  -10.13806 -10.13798 -10.13742 -10.13730 -10.13705
  Beta  occ. eigenvalues --  -10.13704 -10.13402 -10.13038 -10.12937 -10.12551
  Beta  occ. eigenvalues --  -10.12525 -10.12397 -10.12220 -10.12199 -10.11488
  Beta  occ. eigenvalues --  -10.11479 -10.11468 -10.11427 -10.11421 -10.11359
  Beta  occ. eigenvalues --  -10.11011 -10.10684 -10.10640 -10.10623 -10.10497
  Beta  occ. eigenvalues --  -10.10311 -10.10236 -10.09574 -10.09570 -10.09535
  Beta  occ. eigenvalues --  -10.09527 -10.09494 -10.09471 -10.09445 -10.09438
  Beta  occ. eigenvalues --  -10.09430 -10.09406 -10.09385 -10.09330 -10.09254
  Beta  occ. eigenvalues --  -10.09187 -10.09172 -10.09091 -10.09074 -10.09063
  Beta  occ. eigenvalues --  -10.09007 -10.08998 -10.08773 -10.08517 -10.08467
  Beta  occ. eigenvalues --  -10.08433 -10.08403 -10.08376 -10.08355 -10.08134
  Beta  occ. eigenvalues --  -10.07839 -10.07299 -10.07198 -10.07189 -10.07005
  Beta  occ. eigenvalues --  -10.06822 -10.06760 -10.06501  -7.86943  -7.86938
  Beta  occ. eigenvalues --   -7.86915  -7.86915  -7.86857  -7.86797  -7.86183
  Beta  occ. eigenvalues --   -5.88822  -5.88817  -5.88806  -5.88796  -5.88748
  Beta  occ. eigenvalues --   -5.88676  -5.88328  -5.88322  -5.88298  -5.88298
  Beta  occ. eigenvalues --   -5.88239  -5.88183  -5.88054  -5.87886  -5.87880
  Beta  occ. eigenvalues --   -5.87859  -5.87857  -5.87799  -5.87737  -5.87554
  Beta  occ. eigenvalues --   -5.87144  -1.28750  -1.28735  -1.28693  -1.28563
  Beta  occ. eigenvalues --   -1.28134  -1.28086  -1.28027  -1.16881  -1.16832
  Beta  occ. eigenvalues --   -1.16473  -1.16380  -1.16370  -1.16253  -1.16054
  Beta  occ. eigenvalues --   -1.04335  -1.04239  -1.04173  -1.03989  -1.03886
  Beta  occ. eigenvalues --   -1.03833  -1.03786  -0.99374  -0.99156  -0.99005
  Beta  occ. eigenvalues --   -0.98848  -0.98716  -0.98550  -0.97810  -0.92279
  Beta  occ. eigenvalues --   -0.91979  -0.91663  -0.91331  -0.91070  -0.90853
  Beta  occ. eigenvalues --   -0.90212  -0.89213  -0.89156  -0.88969  -0.88781
  Beta  occ. eigenvalues --   -0.88469  -0.88173  -0.87954  -0.85139  -0.84641
  Beta  occ. eigenvalues --   -0.84248  -0.84007  -0.83892  -0.83752  -0.83459
  Beta  occ. eigenvalues --   -0.83248  -0.82983  -0.82597  -0.82399  -0.82021
  Beta  occ. eigenvalues --   -0.81832  -0.81759  -0.81160  -0.81000  -0.80946
  Beta  occ. eigenvalues --   -0.80589  -0.80165  -0.79560  -0.78746  -0.76494
  Beta  occ. eigenvalues --   -0.75754  -0.74887  -0.73952  -0.73219  -0.72837
  Beta  occ. eigenvalues --   -0.72480  -0.72385  -0.72066  -0.71992  -0.71650
  Beta  occ. eigenvalues --   -0.71433  -0.71249  -0.71223  -0.67556  -0.67481
  Beta  occ. eigenvalues --   -0.67460  -0.67404  -0.67054  -0.66984  -0.66705
  Beta  occ. eigenvalues --   -0.66687  -0.66601  -0.66496  -0.66353  -0.66317
  Beta  occ. eigenvalues --   -0.66181  -0.65867  -0.65283  -0.64942  -0.64557
  Beta  occ. eigenvalues --   -0.64204  -0.63918  -0.63708  -0.63010  -0.62293
  Beta  occ. eigenvalues --   -0.61817  -0.61694  -0.61365  -0.61266  -0.61162
  Beta  occ. eigenvalues --   -0.61051  -0.60909  -0.60757  -0.60639  -0.60425
  Beta  occ. eigenvalues --   -0.60357  -0.60331  -0.59815  -0.58316  -0.58242
  Beta  occ. eigenvalues --   -0.57986  -0.57911  -0.57837  -0.57759  -0.57632
  Beta  occ. eigenvalues --   -0.57579  -0.57501  -0.57329  -0.57009  -0.56794
  Beta  occ. eigenvalues --   -0.56589  -0.56270  -0.55746  -0.55640  -0.55606
  Beta  occ. eigenvalues --   -0.55486  -0.55338  -0.55267  -0.54960  -0.54735
  Beta  occ. eigenvalues --   -0.54487  -0.54462  -0.54394  -0.54279  -0.53982
  Beta  occ. eigenvalues --   -0.53884  -0.53814  -0.53626  -0.53471  -0.53353
  Beta  occ. eigenvalues --   -0.53276  -0.53201  -0.53107  -0.52957  -0.52798
  Beta  occ. eigenvalues --   -0.52771  -0.52722  -0.52585  -0.52535  -0.52074
  Beta  occ. eigenvalues --   -0.51826  -0.51808  -0.51746  -0.51613  -0.51462
  Beta  occ. eigenvalues --   -0.51374  -0.51133  -0.50894  -0.50709  -0.50564
  Beta  occ. eigenvalues --   -0.49788  -0.49533  -0.49322  -0.49072  -0.48944
  Beta  occ. eigenvalues --   -0.48885  -0.48432  -0.48355  -0.48161  -0.48145
  Beta  occ. eigenvalues --   -0.47922  -0.47841  -0.47804  -0.47748  -0.47511
  Beta  occ. eigenvalues --   -0.47212  -0.47027  -0.46837  -0.46252  -0.46011
  Beta  occ. eigenvalues --   -0.45838  -0.45779  -0.45747  -0.45613  -0.45527
  Beta  occ. eigenvalues --   -0.44974  -0.44589  -0.44302  -0.44207  -0.44090
  Beta  occ. eigenvalues --   -0.43998  -0.43973  -0.43916  -0.43878  -0.43706
  Beta  occ. eigenvalues --   -0.43664  -0.43644  -0.43554  -0.43467  -0.43098
  Beta  occ. eigenvalues --   -0.43014  -0.42992  -0.42811  -0.42716  -0.42634
  Beta  occ. eigenvalues --   -0.41910  -0.41904  -0.41279  -0.40797  -0.40227
  Beta  occ. eigenvalues --   -0.39557  -0.38776  -0.38085  -0.37789  -0.35475
  Beta  occ. eigenvalues --   -0.35403  -0.35330  -0.35295  -0.34923  -0.34656
  Beta  occ. eigenvalues --   -0.34508  -0.34432  -0.34379  -0.34323  -0.34152
  Beta  occ. eigenvalues --   -0.34122  -0.34072  -0.34007  -0.33463  -0.33403
  Beta  occ. eigenvalues --   -0.33349  -0.33181  -0.33124  -0.33041  -0.32505
  Beta  occ. eigenvalues --   -0.31558  -0.30821  -0.30109  -0.29108  -0.28196
  Beta  occ. eigenvalues --   -0.27415  -0.26668
  Beta virt. eigenvalues --   -0.01857  -0.01312  -0.00311   0.00705   0.01901
  Beta virt. eigenvalues --    0.02963   0.03647   0.04783   0.05143   0.05263
  Beta virt. eigenvalues --    0.05288   0.05342   0.05434   0.05981   0.06239

 Mulliken charges and spin densities:
               1          2
     1  C   -0.032438  -0.000000
     2  C    0.077770   0.000000
     3  N   -0.192947   0.000000
     4  C    0.069883   0.000000
     5  C    0.112731  -0.000000
     6  O   -0.230558   0.000000
     7  C    0.052785  -0.000000
     8  C    0.007678   0.000000
     9  C   -0.159017   0.000000
    10  C    0.121836  -0.000000
    11  F   -0.114536   0.000000
    12  C    0.026070   0.000000
    13  C   -0.163153  -0.000000
    14  S    0.202557   0.000000
    15  C   -0.011680   0.000000
    16  C    0.079456   0.000000
    17  N   -0.188903   0.000000
    18  C    0.079252   0.000000
    19  C    0.119203  -0.000000
    20  O   -0.232792  -0.000000
    21  C    0.053060   0.000000
    22  C    0.015243   0.000000
    23  C   -0.163572  -0.000000
    24  C    0.118704   0.000000
    25  F   -0.114334  -0.000000
    26  C    0.023384  -0.000000
    27  C   -0.164418  -0.000000
    28  S    0.215207   0.000000
    29  C   -0.013417   0.000000
    30  C    0.078321  -0.000000
    31  N   -0.189801   0.000000
    32  C    0.080235   0.000000
    33  C    0.120892   0.000000
    34  O   -0.231705  -0.000000
    35  C    0.054697  -0.000000
    36  C    0.016743  -0.000000
    37  C   -0.162946  -0.000000
    38  C    0.118961  -0.000000
    39  F   -0.114129   0.000000
    40  C    0.026116  -0.000000
    41  C   -0.162143  -0.000000
    42  S    0.205348  -0.000000
    43  C   -0.011104   0.000000
    44  C    0.078280  -0.000000
    45  N   -0.189232  -0.000000
    46  C    0.078915  -0.000000
    47  C    0.119118   0.000000
    48  O   -0.232045  -0.000000
    49  C    0.052670  -0.000000
    50  C    0.014340  -0.000000
    51  C   -0.163146   0.000000
    52  C    0.120016  -0.000000
    53  F   -0.112764   0.000000
    54  C    0.026475   0.000000
    55  C   -0.160785   0.000000
    56  S    0.198596  -0.000000
    57  C   -0.009110  -0.000000
    58  C    0.074749   0.000000
    59  N   -0.178935   0.000000
    60  C    0.077302   0.000000
    61  C    0.131714  -0.000000
    62  O   -0.258922  -0.000000
    63  C    0.058005  -0.000000
    64  C    0.014227   0.000000
    65  C   -0.181450  -0.000000
    66  C    0.151659  -0.000000
    67  F   -0.098797   0.000000
    68  C    0.029883   0.000000
    69  C   -0.161519  -0.000000
    70  S    0.171605   0.000000
    71  C   -0.009682  -0.000000
    72  C    0.075978  -0.000000
    73  N   -0.179028  -0.000000
    74  C    0.079436   0.000000
    75  C    0.131618  -0.000000
    76  O   -0.259005   0.000000
    77  C    0.058963  -0.000000
    78  C    0.015494   0.000000
    79  C   -0.182682  -0.000000
    80  C    0.150979  -0.000000
    81  F   -0.098452   0.000000
    82  C    0.031594  -0.000000
    83  C   -0.161730   0.000000
    84  S    0.171741   0.000000
    85  C   -0.014120   0.000000
    86  C    0.079048  -0.000000
    87  N   -0.186515   0.000000
    88  C    0.085540  -0.000000
    89  C    0.119560   0.000000
    90  O   -0.230908  -0.000000
    91  C    0.054568   0.000000
    92  C    0.015340  -0.000000
    93  C   -0.173288   0.000000
    94  C    0.103280  -0.000000
    95  F   -0.118456   0.000000
    96  C    0.046993   0.000000
    97  C   -0.131459   0.000000
    98  S    0.204206  -0.000000
    99  H   -0.000511  -0.000000
   100  H    0.006321  -0.000000
   101  H    0.048872   0.000000
   102  H    0.047390   0.000000
   103  H    0.061661   0.000000
   104  H    0.004595  -0.000000
   105  H    0.003822  -0.000000
   106  H    0.003339   0.000000
   107  H    0.059765   0.000000
   108  H    0.051239  -0.000000
   109  H    0.052021  -0.000000
   110  H    0.006430  -0.000000
   111  H   -0.001279  -0.000000
   112  H    0.012000  -0.000000
   113  H    0.048122   0.000000
   114  H    0.061437   0.000000
   115  H    0.050177   0.000000
   116  H   -0.003195  -0.000000
   117  H    0.002924  -0.000000
   118  H    0.002450  -0.000000
   119  H    0.052480   0.000000
   120  H    0.061119  -0.000000
   121  H    0.050963   0.000000
   122  H    0.007283  -0.000000
   123  H    0.004761  -0.000000
   124  H    0.003923  -0.000000
   125  H    0.053626   0.000000
   126  H    0.055268   0.000000
   127  H    0.059147   0.000000
   128  H    0.003090   0.000000
   129  H    0.003690   0.000000
   130  H    0.004571   0.000000
   131  H    0.053926   0.000000
   132  H    0.052112  -0.000000
   133  H    0.059524   0.000000
   134  H    0.000614   0.000000
   135  H    0.003457  -0.000000
   136  H    0.004395   0.000000
   137  H    0.045993  -0.000000
   138  H    0.060071  -0.000000
   139  H    0.051308  -0.000000
   140  H    0.001548  -0.000000
   141  H    0.004923  -0.000000
   142  H    0.032228   0.000000
 Sum of Mulliken charges =  -0.00000   0.00000

 Dipole moment (field-independent basis, Debye):
    X=            -12.7102    Y=             -6.8457    Z=              0.9100  Tot=             14.4652
 Quadrupole moment (field-independent basis, Debye-Ang):
   XX=           -472.2848   YY=           -546.0759   ZZ=           -595.1054
   XY=           -107.5042   XZ=            -20.5685   YZ=             32.8175

 Normal termination of Gaussian 16 at Sun Jul 26 08:00:00 2020.
