 Gaussian 16, Revision A.03,
 Gaussian 16:  EM64L-G16RevA.03 25-Dec-2016

 ---------------------------------------------------------------
 #P uLC-wPBE/cc-pVDZ iop(3/107=0186300000, 3/108=0186300000) opt
 ---------------------------------------------------------------

 -----------------
 H44 C77 S7 O7 F14
 -----------------
 Symbolic Z-matrix:
 Charge =  0 Multiplicity = 1

 SCF Done:  E(ULC-wPBE) =  -7667.15467952     A.U. after   17 cycles
 SCF Done:  E(ULC-wPBE) =  -7667.26026070     A.U. after   13 cycles
 SCF Done:  E(ULC-wPBE) =  -7667.37203094     A.U. after   14 cycles
 SCF Done:  E(ULC-wPBE) =  -7667.40799334     A.U. after   14 cycles
 SCF Done:  E(ULC-wPBE) =  -7667.41814371     A.U. after   13 cycles
 SCF Done:  E(ULC-wPBE) =  -7667.42312273     A.U. after   13 cycles
 SCF Done:  E(ULC-wPBE) =  -7667.42361174     A.U. after   16 cycles
 SCF Done:  E(ULC-wPBE) =  -7667.42586060     A.U. after   13 cycles
 SCF Done:  E(ULC-wPBE) =  -7667.42645495     A.U. after   13 cycles
 SCF Done:  E(ULC-wPBE) =  -7667.42676023     A.U. after   12 cycles
 SCF Done:  E(ULC-wPBE) =  -7667.42732862     A.U. after   11 cycles
 SCF Done:  E(ULC-wPBE) =  -7667.42733869     A.U. after   10 cycles
 SCF Done:  E(ULC-wPBE) =  -7667.42734610     A.U. after   10 cycles
 SCF Done:  E(ULC-wPBE) =  -7667.42734812     A.U. after   11 cycles
 SCF Done:  E(ULC-wPBE) =  -7667.42734955     A.U. after   11 cycles
 SCF Done:  E(ULC-wPBE) =  -7667.42734973     A.U. after    9 cycles
 SCF Done:  E(ULC-wPBE) =  -7667.42735023     A.U. after    7 cycles
 SCF Done:  E(ULC-wPBE) =  -7667.42735017     A.U. after    7 cycles
 SCF Done:  E(ULC-wPBE) =  -7667.42735016     A.U. after    7 cycles
 SCF Done:  E(ULC-wPBE) =  -7667.42735025     A.U. after    5 cycles
 Optimization completed.
    -- Stationary point found.

                         Standard orientation:
 ---------------------------------------------------------------------
 Center     Atomic      Atomic             Coordinates (Angstroms)
 Number     Number       Type             X           Y           Z
 ---------------------------------------------------------------------
      1          6           0      -26.887391   -3.841843   -0.681814
      2          6           0      -26.121482   -3.216692   -1.671225
      3          6           0      -24.872287   -2.705313   -1.326993
      4          9           0      -24.135461   -2.100448   -2.287204
      5          6           0      -24.332569   -2.785084   -0.029623
      6          6           0      -25.138688   -3.441515    0.920615
      7          9           0      -24.663079   -3.592214    2.173658
      8          6           0      -26.398709   -3.958684    0.623010
      9          6           0      -23.017696   -2.226989    0.319447
     10          6           0      -22.705697   -1.405840    1.398464
     11          8           0      -23.690435   -0.982033    2.234492
     12          6           0      -23.284193   -0.205984    3.354729
     13          6           0      -21.319900   -1.067892    1.468579
     14          6           0      -20.580205   -1.621797    0.438972
     15         16           0      -21.587047   -2.566751   -0.614523
     16          6           0      -19.136395   -1.483597    0.187243
     17          6           0      -18.252980   -1.237444    1.255408
     18          6           0      -16.892593   -1.103333    1.003505
     19          9           0      -16.070114   -0.871117    2.052570
     20          6           0      -16.319334   -1.207696   -0.277632
     21          6           0      -17.239875   -1.440015   -1.317925
     22          9           0      -16.779025   -1.499963   -2.583290
     23          6           0      -18.608926   -1.581719   -1.113449
     24          6           0      -14.876270   -1.084665   -0.520777
     25          6           0      -14.069721   -1.928853   -1.278702
     26          8           0      -14.598713   -3.048648   -1.838114
     27          6           0      -13.730621   -3.824254   -2.655329
     28          6           0      -12.708058   -1.503238   -1.340390
     29          6           0      -12.475169   -0.344357   -0.621455
     30         16           0      -13.933575    0.230389    0.126347
     31          6           0      -11.201507    0.374360   -0.453784
     32          6           0      -10.204559    0.285792   -1.443837
     33          6           0       -9.003910    0.964434   -1.270834
     34          9           0       -8.068249    0.861887   -2.242775
     35          6           0       -8.709842    1.762323   -0.149302
     36          6           0       -9.728371    1.811659    0.822169
     37          9           0       -9.505727    2.511089    1.952849
     38          6           0      -10.945664    1.150291    0.691691
     39          6           0       -7.442969    2.488847    0.005086
     40          6           0       -7.268578    3.821019    0.369129
     41          8           0       -8.352460    4.617870    0.562136
     42          6           0       -8.096867    5.946716    0.999712
     43          6           0       -5.896619    4.206519    0.459644
     44          6           0       -5.027968    3.173994    0.153889
     45         16           0       -5.897031    1.722260   -0.238108
     46          6           0       -3.556482    3.208149    0.133100
     47          6           0       -2.858651    4.114741    0.952783
     48          6           0       -1.468218    4.147201    0.921059
     49          9           0       -0.835952    5.002050    1.750647
     50          6           0       -0.690352    3.314400    0.093182
     51          6           0       -1.428903    2.412821   -0.695584
     52          9           0       -0.748446    1.572104   -1.507545
     53          6           0       -2.817508    2.344498   -0.696918
     54          6           0        0.776250    3.385330    0.066440
     55          6           0        1.567972    4.524717   -0.045431
     56          8           0        0.984948    5.741394   -0.211931
     57          6           0        1.856357    6.864520   -0.254284
     58          6           0        2.967763    4.245634   -0.006142
     59          6           0        3.242009    2.895733    0.123580
     60         16           0        1.777515    1.965948    0.205932
     61          6           0        4.560108    2.243600    0.189672
     62          6           0        5.673504    2.948894    0.684482
     63          6           0        6.913696    2.323368    0.736906
     64          9           0        7.962427    3.027575    1.221732
     65          6           0        7.139280    0.995959    0.327068
     66          6           0        6.002364    0.332749   -0.174218
     67          9           0        6.143622   -0.924872   -0.638226
     68          6           0        4.741784    0.917764   -0.244758
     69          6           0        8.453033    0.345165    0.411121
     70          6           0        8.743648   -0.912709    0.931627
     71          8           0        7.756830   -1.655727    1.498073
     72          6           0        8.115345   -2.957678    1.944571
     73          6           0       10.125064   -1.259998    0.830605
     74          6           0       10.887101   -0.264489    0.245496
     75         16           0        9.904290    1.099605   -0.190221
     76          6           0       12.336570   -0.268960   -0.011515
     77          6           0       13.073297    0.928652   -0.061596
     78          6           0       14.443725    0.889077   -0.299699
     79          9           0       15.120258    2.055044   -0.299065
     80          6           0       15.161352   -0.304450   -0.509805
     81          6           0       14.386757   -1.477397   -0.437787
     82          9           0       15.009491   -2.664581   -0.620733
     83          6           0       13.016886   -1.486627   -0.202028
     84          6           0       16.604610   -0.314531   -0.780781
     85          6           0       17.300299    0.467280   -1.698470
     86          8           0       16.623547    1.318785   -2.513495
     87          6           0       17.407439    2.131944   -3.377741
     88          6           0       18.708600    0.230740   -1.688771
     89          6           0       19.083824   -0.737010   -0.774130
     90         16           0       17.705096   -1.353601    0.083397
     91          6           0       20.438622   -1.242101   -0.496543
     92          6           0       20.646978   -2.547777   -0.015909
     93          6           0       21.941238   -2.996616    0.229795
     94          9           0       22.100725   -4.267054    0.651939
     95          6           0       23.088695   -2.204596    0.032761
     96          6           0       22.833350   -0.911503   -0.459953
     97          9           0       23.888399   -0.094041   -0.682161
     98          6           0       21.559166   -0.420192   -0.720797
     99          6           0       24.441861   -2.698530    0.322207
    100          6           0       24.877501   -3.338397    1.477992
    101          8           0       24.020855   -3.515110    2.519997
    102          6           0       24.519932   -4.238068    3.637490
    103          6           0       26.257044   -3.721033    1.426448
    104          6           0       26.847685   -3.360530    0.237416
    105         16           0       25.753071   -2.556255   -0.820179
    106          1           0      -27.875611   -4.247942   -0.932681
    107          1           0      -26.473775   -3.110763   -2.703829
    108          1           0      -26.969080   -4.454302    1.417262
    109          1           0      -24.203216    0.006606    3.926966
    110          1           0      -22.573216   -0.761946    4.001543
    111          1           0      -22.821221    0.754358    3.043210
    112          1           0      -20.880869   -0.407075    2.222169
    113          1           0      -18.603172   -1.180840    2.292209
    114          1           0      -19.255205   -1.734536   -1.986321
    115          1           0      -14.341943   -4.656314   -3.044051
    116          1           0      -13.335565   -3.233286   -3.508271
    117          1           0      -12.881116   -4.239829   -2.072970
    118          1           0      -11.911997   -2.047503   -1.857463
    119          1           0      -10.359776   -0.279312   -2.369769
    120          1           0      -11.671260    1.223290    1.510902
    121          1           0       -9.085349    6.417489    1.135500
    122          1           0       -7.521104    6.523803    0.245374
    123          1           0       -7.550870    5.961058    1.966430
    124          1           0       -5.551562    5.217023    0.698580
    125          1           0       -3.381135    4.777090    1.652268
    126          1           0       -3.308079    1.632484   -1.371580
    127          1           0        2.544409    6.817910   -1.124877
    128          1           0        1.206414    7.750186   -0.356286
    129          1           0        2.452004    6.955677    0.678349
    130          1           0        3.753069    5.000222   -0.111896
    131          1           0        5.585472    3.973082    1.064076
    132          1           0        3.917874    0.334941   -0.674217
    133          1           0        8.868265   -2.919086    2.760123
    134          1           0        7.187790   -3.412290    2.331995
    135          1           0        8.507106   -3.581439    1.113750
    136          1           0       10.559298   -2.189448    1.211192
    137          1           0       12.601327    1.902368    0.117453
    138          1           0       12.490265   -2.447597   -0.203378
    139          1           0       16.693423    2.771612   -3.923815
    140          1           0       17.979751    1.521878   -4.108355
    141          1           0       18.110496    2.775257   -2.807895
    142          1           0       19.423481    0.719764   -2.357415
    143          1           0       19.813287   -3.242981    0.141051
    144          1           0       21.455613    0.614804   -1.065684
    145          1           0       25.372071   -3.713410    4.119698
    146          1           0       24.836315   -5.264070    3.353921
    147          1           0       23.684769   -4.303184    4.355661
    148          1           0       26.793916   -4.233558    2.230470
    149          1           0       27.885313   -3.520501   -0.069554
 ---------------------------------------------------------------------

 Alpha virt. eigenvalues --    0.49738   0.49825   0.49966   0.50072   0.50152
 Alpha virt. eigenvalues --    0.50195   0.50376   0.50446   0.50499   0.50572
 Alpha virt. eigenvalues --    0.50620   0.50781   0.50906   0.51047   0.51071

  Beta  occ. eigenvalues --  -88.20872 -88.20854 -88.20853 -88.20810 -88.20809
  Beta  occ. eigenvalues --  -88.20700 -88.20333 -24.39706 -24.39690 -24.39680
  Beta  occ. eigenvalues --  -24.39654 -24.39610 -24.39503 -24.39389 -24.39374
  Beta  occ. eigenvalues --  -24.39324 -24.39294 -24.39277 -24.39226 -24.39194
  Beta  occ. eigenvalues --  -24.38996 -18.90949 -18.90919 -18.90880 -18.90855
  Beta  occ. eigenvalues --  -18.90848 -18.90778 -18.90446 -10.09699 -10.09682
  Beta  occ. eigenvalues --  -10.09677 -10.09670 -10.09659 -10.09628 -10.09604
  Beta  occ. eigenvalues --  -10.09599 -10.09589 -10.09531 -10.09467 -10.09423
  Beta  occ. eigenvalues --  -10.09367 -10.09293 -10.06948 -10.06947 -10.06917
  Beta  occ. eigenvalues --  -10.06882 -10.06862 -10.06793 -10.06382 -10.06355
  Beta  occ. eigenvalues --  -10.06339 -10.06305 -10.06284 -10.06252 -10.06201
  Beta  occ. eigenvalues --  -10.05976 -10.04764 -10.04749 -10.04742 -10.04700
  Beta  occ. eigenvalues --  -10.04692 -10.04591 -10.04286 -10.04274 -10.04249
  Beta  occ. eigenvalues --  -10.04247 -10.04191 -10.03995 -10.03779 -10.03770
  Beta  occ. eigenvalues --  -10.03751 -10.03710 -10.03679 -10.03606 -10.03570
  Beta  occ. eigenvalues --  -10.03564 -10.03535 -10.03529 -10.03478 -10.03465
  Beta  occ. eigenvalues --  -10.03380 -10.03211 -10.03095 -10.02568 -10.01808
  Beta  occ. eigenvalues --  -10.01790 -10.01785 -10.01770 -10.01768 -10.01729
  Beta  occ. eigenvalues --  -10.01707 -10.01676 -10.01675 -10.01632 -10.01627
  Beta  occ. eigenvalues --  -10.01621 -10.01613 -10.01607 -10.01576 -10.01567
  Beta  occ. eigenvalues --  -10.01560 -10.01544 -10.01448 -10.01441 -10.01128
  Beta  occ. eigenvalues --   -7.81205  -7.81187  -7.81186  -7.81143  -7.81142
  Beta  occ. eigenvalues --   -7.81033  -7.80668  -5.83242  -5.83224  -5.83222
  Beta  occ. eigenvalues --   -5.83180  -5.83178  -5.83070  -5.82781  -5.82762
  Beta  occ. eigenvalues --   -5.82761  -5.82718  -5.82717  -5.82698  -5.82609
  Beta  occ. eigenvalues --   -5.82355  -5.82336  -5.82335  -5.82294  -5.82290
  Beta  occ. eigenvalues --   -5.82233  -5.82182  -5.81834  -1.23331  -1.23310
  Beta  occ. eigenvalues --   -1.23302  -1.23296  -1.23234  -1.23121  -1.23118
  Beta  occ. eigenvalues --   -1.23071  -1.23042  -1.23028  -1.22998  -1.22973
  Beta  occ. eigenvalues --   -1.22913  -1.22739  -1.09322  -1.09302  -1.09263
  Beta  occ. eigenvalues --   -1.09232  -1.09230  -1.09157  -1.08802  -0.93244
  Beta  occ. eigenvalues --   -0.93144  -0.93025  -0.92885  -0.92733  -0.92626
  Beta  occ. eigenvalues --   -0.91768  -0.91163  -0.90912  -0.90602  -0.90261
  Beta  occ. eigenvalues --   -0.89940  -0.89680  -0.89551  -0.84992  -0.84589
  Beta  occ. eigenvalues --   -0.84047  -0.83396  -0.82686  -0.81976  -0.81413
  Beta  occ. eigenvalues --   -0.79840  -0.79689  -0.79630  -0.79567  -0.79539
  Beta  occ. eigenvalues --   -0.79481  -0.79379  -0.79128  -0.79051  -0.78915
  Beta  occ. eigenvalues --   -0.78784  -0.78742  -0.78707  -0.78557  -0.78084
  Beta  occ. eigenvalues --   -0.77805  -0.77392  -0.76850  -0.76389  -0.76065
  Beta  occ. eigenvalues --   -0.75917  -0.73880  -0.73726  -0.73517  -0.73201
  Beta  occ. eigenvalues --   -0.72747  -0.72132  -0.71217  -0.70300  -0.69399
  Beta  occ. eigenvalues --   -0.68461  -0.67770  -0.67528  -0.67506  -0.67330
  Beta  occ. eigenvalues --   -0.67282  -0.67164  -0.67021  -0.66959  -0.66810
  Beta  occ. eigenvalues --   -0.66207  -0.65962  -0.62731  -0.62683  -0.62646
  Beta  occ. eigenvalues --   -0.62615  -0.62588  -0.62484  -0.62238  -0.61511
  Beta  occ. eigenvalues --   -0.61279  -0.61169  -0.61117  -0.61023  -0.60892
  Beta  occ. eigenvalues --   -0.60463  -0.60085  -0.59996  -0.59815  -0.59579
  Beta  occ. eigenvalues --   -0.59380  -0.58967  -0.58616  -0.58406  -0.57652
  Beta  occ. eigenvalues --   -0.57482  -0.57306  -0.57235  -0.56972  -0.56898
  Beta  occ. eigenvalues --   -0.56646  -0.56607  -0.56504  -0.56428  -0.56375
  Beta  occ. eigenvalues --   -0.56287  -0.56194  -0.54340  -0.54311  -0.54294
  Beta  occ. eigenvalues --   -0.54277  -0.54235  -0.54059  -0.53459  -0.53139
  Beta  occ. eigenvalues --   -0.53030  -0.52924  -0.52760  -0.52647  -0.52536
  Beta  occ. eigenvalues --   -0.52425  -0.52223  -0.52158  -0.52109  -0.52075
  Beta  occ. eigenvalues --   -0.52056  -0.52038  -0.52017  -0.51997  -0.51986
  Beta  occ. eigenvalues --   -0.51937  -0.51907  -0.51889  -0.51870  -0.51664
  Beta  occ. eigenvalues --   -0.51110  -0.50957  -0.50915  -0.50818  -0.50636
  Beta  occ. eigenvalues --   -0.50436  -0.50332  -0.49815  -0.49747  -0.49715
  Beta  occ. eigenvalues --   -0.49675  -0.49608  -0.49591  -0.49531  -0.48771
  Beta  occ. eigenvalues --   -0.48712  -0.48654  -0.48603  -0.48548  -0.48544
  Beta  occ. eigenvalues --   -0.48405  -0.48034  -0.47302  -0.47287  -0.47097
  Beta  occ. eigenvalues --   -0.47096  -0.46901  -0.46883  -0.46491  -0.46194
  Beta  occ. eigenvalues --   -0.46063  -0.46033  -0.46014  -0.45964  -0.45814
  Beta  occ. eigenvalues --   -0.45771  -0.45696  -0.45677  -0.45601  -0.45558
  Beta  occ. eigenvalues --   -0.45506  -0.45054  -0.44937  -0.44546  -0.44496
  Beta  occ. eigenvalues --   -0.44413  -0.44359  -0.44288  -0.44118  -0.43659
  Beta  occ. eigenvalues --   -0.42332  -0.42240  -0.42102  -0.42059  -0.42011
  Beta  occ. eigenvalues --   -0.41985  -0.41888  -0.41885  -0.41794  -0.41742
  Beta  occ. eigenvalues --   -0.41643  -0.41579  -0.41557  -0.41504  -0.41327
  Beta  occ. eigenvalues --   -0.41306  -0.41281  -0.41265  -0.41124  -0.41084
  Beta  occ. eigenvalues --   -0.40648  -0.40126  -0.40075  -0.39967  -0.39894
  Beta  occ. eigenvalues --   -0.39811  -0.39703  -0.39608  -0.39035  -0.38942
  Beta  occ. eigenvalues --   -0.38918  -0.38886  -0.38858  -0.38787  -0.38551
  Beta  occ. eigenvalues --   -0.38121  -0.38022  -0.37934  -0.37918  -0.37903
  Beta  occ. eigenvalues --   -0.37816  -0.37596  -0.35288  -0.34992  -0.34611
  Beta  occ. eigenvalues --   -0.34086  -0.33488  -0.32838  -0.32316  -0.31078
  Beta  occ. eigenvalues --   -0.31032  -0.30994  -0.30990  -0.30959  -0.30868
  Beta  occ. eigenvalues --   -0.30753  -0.30713  -0.30474  -0.30121  -0.29907
  Beta  occ. eigenvalues --   -0.29780  -0.29748  -0.29538  -0.27732  -0.27390
  Beta  occ. eigenvalues --   -0.26895  -0.26219  -0.25495  -0.24853  -0.24449
  Beta virt. eigenvalues --   -0.02713  -0.02137  -0.01332  -0.00375   0.00630
  Beta virt. eigenvalues --    0.01557   0.03141   0.03748   0.04023   0.04141
  Beta virt. eigenvalues --    0.04210   0.04293   0.04358   0.04517   0.04638

 Mulliken charges and spin densities:
               1          2
     1  C    0.041779  -0.000000
     2  C    0.012500   0.000000
     3  C    0.108135   0.000000
     4  F   -0.118955   0.000000
     5  C   -0.055104  -0.000000
     6  C    0.112268   0.000000
     7  F   -0.114384   0.000000
     8  C    0.011054   0.000000
     9  C   -0.182872   0.000000
    10  C    0.177291  -0.000000
    11  O   -0.232212   0.000000
    12  C    0.059594   0.000000
    13  C   -0.003462  -0.000000
    14  C   -0.146964   0.000000
    15  S    0.182761   0.000000
    16  C    0.091179   0.000000
    17  C   -0.007816   0.000000
    18  C    0.116219  -0.000000
    19  F   -0.118110   0.000000
    20  C   -0.046915   0.000000
    21  C    0.116481  -0.000000
    22  F   -0.111750   0.000000
    23  C   -0.005806  -0.000000
    24  C   -0.184795   0.000000
    25  C    0.174944  -0.000000
    26  O   -0.231641  -0.000000
    27  C    0.059352   0.000000
    28  C   -0.002228   0.000000
    29  C   -0.146481   0.000000
    30  S    0.181429  -0.000000
    31  C    0.090567  -0.000000
    32  C   -0.007465   0.000000
    33  C    0.116256  -0.000000
    34  F   -0.117824  -0.000000
    35  C   -0.046665  -0.000000
    36  C    0.116371   0.000000
    37  F   -0.111860  -0.000000
    38  C   -0.005593  -0.000000
    39  C   -0.184650   0.000000
    40  C    0.174790   0.000000
    41  O   -0.231631  -0.000000
    42  C    0.059518   0.000000
    43  C   -0.002374  -0.000000
    44  C   -0.146301   0.000000
    45  S    0.181720   0.000000
    46  C    0.090957  -0.000000
    47  C   -0.009390   0.000000
    48  C    0.120332  -0.000000
    49  F   -0.113281  -0.000000
    50  C   -0.046635   0.000000
    51  C    0.112567   0.000000
    52  F   -0.116372  -0.000000
    53  C   -0.004379   0.000000
    54  C   -0.184922  -0.000000
    55  C    0.174255   0.000000
    56  O   -0.232429  -0.000000
    57  C    0.059651  -0.000000
    58  C   -0.002496  -0.000000
    59  C   -0.146543  -0.000000
    60  S    0.183645   0.000000
    61  C    0.090559   0.000000
    62  C   -0.007725  -0.000000
    63  C    0.116224   0.000000
    64  F   -0.118007  -0.000000
    65  C   -0.046602  -0.000000
    66  C    0.116502   0.000000
    67  F   -0.111505   0.000000
    68  C   -0.005674  -0.000000
    69  C   -0.184976   0.000000
    70  C    0.174904  -0.000000
    71  O   -0.231695  -0.000000
    72  C    0.059384   0.000000
    73  C   -0.002292   0.000000
    74  C   -0.146235  -0.000000
    75  S    0.181311  -0.000000
    76  C    0.090661   0.000000
    77  C   -0.005903   0.000000
    78  C    0.116334  -0.000000
    79  F   -0.111835   0.000000
    80  C   -0.046423   0.000000
    81  C    0.116243   0.000000
    82  F   -0.117886   0.000000
    83  C   -0.007802  -0.000000
    84  C   -0.185366  -0.000000
    85  C    0.174584   0.000000
    86  O   -0.231925  -0.000000
    87  C    0.059578  -0.000000
    88  C   -0.002453  -0.000000
    89  C   -0.145558   0.000000
    90  S    0.180964  -0.000000
    91  C    0.089721   0.000000
    92  C   -0.006992   0.000000
    93  C    0.117153  -0.000000
    94  F   -0.112545   0.000000
    95  C   -0.038048  -0.000000
    96  C    0.116867   0.000000
    97  F   -0.118387   0.000000
    98  C   -0.009251  -0.000000
    99  C   -0.200316   0.000000
   100  C    0.160400  -0.000000
   101  O   -0.231333  -0.000000
   102  C    0.058219  -0.000000
   103  C    0.018108  -0.000000
   104  C   -0.121014   0.000000
   105  S    0.177394  -0.000000
   106  H   -0.003725  -0.000000
   107  H   -0.002277  -0.000000
   108  H   -0.002913  -0.000000
   109  H    0.051899   0.000000
   110  H    0.043827   0.000000
   111  H    0.044639  -0.000000
   112  H   -0.010256  -0.000000
   113  H   -0.013629   0.000000
   114  H   -0.003123  -0.000000
   115  H    0.052937  -0.000000
   116  H    0.044151  -0.000000
   117  H    0.044982  -0.000000
   118  H   -0.009806  -0.000000
   119  H   -0.013232  -0.000000
   120  H   -0.003406   0.000000
   121  H    0.052769  -0.000000
   122  H    0.044684  -0.000000
   123  H    0.043952   0.000000
   124  H   -0.010126  -0.000000
   125  H   -0.013994   0.000000
   126  H   -0.002474  -0.000000
   127  H    0.045193  -0.000000
   128  H    0.051584  -0.000000
   129  H    0.044071  -0.000000
   130  H   -0.010072  -0.000000
   131  H   -0.013719  -0.000000
   132  H   -0.002846   0.000000
   133  H    0.044882  -0.000000
   134  H    0.052957  -0.000000
   135  H    0.044191   0.000000
   136  H   -0.009925  -0.000000
   137  H   -0.003640  -0.000000
   138  H   -0.013552  -0.000000
   139  H    0.052422   0.000000
   140  H    0.044841  -0.000000
   141  H    0.043967   0.000000
   142  H   -0.010232   0.000000
   143  H   -0.004350   0.000000
   144  H   -0.014439  -0.000000
   145  H    0.042294   0.000000
   146  H    0.043600   0.000000
   147  H    0.051286   0.000000
   148  H   -0.008212  -0.000000
   149  H    0.022151   0.000000
 Sum of Mulliken charges =  -0.00000  -0.00000

 Dipole moment (field-independent basis, Debye):
    X=             -1.0518    Y=              1.3710    Z=              1.7093  Tot=              2.4305
 Quadrupole moment (field-independent basis, Debye-Ang):
   XX=           -497.8414   YY=           -566.0734   ZZ=           -609.7500
   XY=            -15.7803   XZ=             -1.6363   YZ=             -5.8176

 Normal termination of Gaussian 16 at Fri Jul 24 23:09:41 2020.
