 Gaussian 16, Revision A.03,
 Gaussian 16:  EM64L-G16RevA.03 25-Dec-2016

 ---------------------------------------------------------------
 #P uLC-wPBE/cc-pVDZ iop(3/107=0152400000, 3/108=0152400000) opt
 ---------------------------------------------------------------

 ---------------
 H9 C11 N2 O1 F1
 ---------------
 Symbolic Z-matrix:
 Charge =  0 Multiplicity = 1

 SCF Done:  E(ULC-wPBE) =  -708.472030390     A.U. after   15 cycles
 SCF Done:  E(ULC-wPBE) =  -708.509329864     A.U. after   14 cycles
 SCF Done:  E(ULC-wPBE) =  -708.518615588     A.U. after   14 cycles
 SCF Done:  E(ULC-wPBE) =  -708.519125510     A.U. after   12 cycles
 SCF Done:  E(ULC-wPBE) =  -708.519197595     A.U. after   13 cycles
 SCF Done:  E(ULC-wPBE) =  -708.519227769     A.U. after   11 cycles
 SCF Done:  E(ULC-wPBE) =  -708.519238348     A.U. after   11 cycles
 SCF Done:  E(ULC-wPBE) =  -708.519240392     A.U. after    9 cycles
 SCF Done:  E(ULC-wPBE) =  -708.519240629     A.U. after    8 cycles
 SCF Done:  E(ULC-wPBE) =  -708.519240828     A.U. after    8 cycles
 SCF Done:  E(ULC-wPBE) =  -708.519240866     A.U. after    7 cycles
 Optimization completed.
    -- Stationary point found.

                         Standard orientation:
 ---------------------------------------------------------------------
 Center     Atomic      Atomic             Coordinates (Angstroms)
 Number     Number       Type             X           Y           Z
 ---------------------------------------------------------------------
      1          6           0       -3.668499   -0.151809   -0.258591
      2          6           0       -2.969950    0.694775    0.608099
      3          6           0       -1.589031    0.532150    0.691616
      4          9           0       -0.883742    1.312239    1.543971
      5          6           0       -0.928799   -0.444968   -0.073470
      6          7           0       -1.612950   -1.262319   -0.896088
      7          6           0       -2.943780   -1.110242   -0.979860
      8          6           0        0.550731   -0.660411    0.030978
      9          7           0        0.949441   -1.902721    0.337367
     10          6           0        2.269048   -2.141984    0.429872
     11          6           0        3.241938   -1.160654    0.221721
     12          6           0        2.836264    0.137138   -0.114009
     13          6           0        1.461998    0.398820   -0.221200
     14          8           0        0.918453    1.596812   -0.576732
     15          6           0        1.809151    2.686447   -0.788039
     16          1           0       -4.758698   -0.072187   -0.367532
     17          1           0       -3.466362    1.460275    1.218899
     18          1           0       -3.461996   -1.797831   -1.667410
     19          1           0        2.556070   -3.173628    0.687786
     20          1           0        4.309701   -1.402687    0.314603
     21          1           0        3.581358    0.921349   -0.295695
     22          1           0        1.172330    3.551648   -1.041393
     23          1           0        2.507998    2.489088   -1.629405
     24          1           0        2.395790    2.919039    0.126606
 ---------------------------------------------------------------------

 The electronic state is 1-A.
 Alpha  occ. eigenvalues --  -24.37361 -18.89574 -14.08220 -14.07801 -10.06973
 Alpha  occ. eigenvalues --  -10.05271 -10.04768 -10.02578 -10.02126 -10.01517
 Alpha  occ. eigenvalues --  -10.00801 -10.00729 -10.00259 -10.00161  -9.99699
 Alpha  occ. eigenvalues --   -1.20784  -1.07732  -0.95583  -0.93627  -0.82120
 Alpha  occ. eigenvalues --   -0.81456  -0.80394  -0.76503  -0.72762  -0.68202
 Alpha  occ. eigenvalues --   -0.65777  -0.63622  -0.63236  -0.57765  -0.56497
 Alpha  occ. eigenvalues --   -0.54560  -0.54029  -0.53112  -0.50771  -0.50630
 Alpha  occ. eigenvalues --   -0.48881  -0.47416  -0.46854  -0.45470  -0.44582
 Alpha  occ. eigenvalues --   -0.44192  -0.42828  -0.42472  -0.41789  -0.39957
 Alpha  occ. eigenvalues --   -0.37902  -0.37583  -0.33939  -0.32809  -0.30029
 Alpha  occ. eigenvalues --   -0.29038  -0.28441  -0.27356
 Alpha virt. eigenvalues --   -0.00079   0.02107   0.03403   0.04745   0.10472
 Alpha virt. eigenvalues --    0.11439   0.12705   0.14612   0.15933   0.16180
 Alpha virt. eigenvalues --    0.16915   0.17240   0.17762   0.18203   0.18581

  Beta  occ. eigenvalues --  -24.37361 -18.89574 -14.08220 -14.07801 -10.06973
  Beta  occ. eigenvalues --  -10.05271 -10.04768 -10.02578 -10.02126 -10.01517
  Beta  occ. eigenvalues --  -10.00801 -10.00729 -10.00259 -10.00161  -9.99699
  Beta  occ. eigenvalues --   -1.20784  -1.07732  -0.95583  -0.93627  -0.82120
  Beta  occ. eigenvalues --   -0.81456  -0.80394  -0.76503  -0.72762  -0.68202
  Beta  occ. eigenvalues --   -0.65777  -0.63622  -0.63236  -0.57765  -0.56497
  Beta  occ. eigenvalues --   -0.54560  -0.54029  -0.53112  -0.50771  -0.50630
  Beta  occ. eigenvalues --   -0.48881  -0.47416  -0.46854  -0.45470  -0.44582
  Beta  occ. eigenvalues --   -0.44192  -0.42828  -0.42472  -0.41789  -0.39957
  Beta  occ. eigenvalues --   -0.37902  -0.37583  -0.33939  -0.32809  -0.30029
  Beta  occ. eigenvalues --   -0.29038  -0.28441  -0.27356
  Beta virt. eigenvalues --   -0.00079   0.02107   0.03403   0.04745   0.10472
  Beta virt. eigenvalues --    0.11439   0.12705   0.14612   0.15933   0.16180
  Beta virt. eigenvalues --    0.16915   0.17240   0.17762   0.18203   0.18581

 Mulliken charges and spin densities:
               1          2
     1  C   -0.016468  -0.000000
     2  C    0.057411   0.000000
     3  C    0.128111   0.000000
     4  F   -0.123338   0.000000
     5  C    0.030896   0.000000
     6  N   -0.166896   0.000000
     7  C    0.080668  -0.000000
     8  C    0.039028  -0.000000
     9  N   -0.166609  -0.000000
    10  C    0.079229   0.000000
    11  C   -0.019289  -0.000000
    12  C    0.015766   0.000000
    13  C    0.121638   0.000000
    14  O   -0.230683   0.000000
    15  C    0.060063   0.000000
    16  H   -0.008770   0.000000
    17  H    0.000471  -0.000000
    18  H    0.001725   0.000000
    19  H   -0.003460  -0.000000
    20  H   -0.014234   0.000000
    21  H   -0.010878  -0.000000
    22  H    0.053157  -0.000000
    23  H    0.045985  -0.000000
    24  H    0.046478  -0.000000
 Sum of Mulliken charges =  -0.00000   0.00000

 Dipole moment (field-independent basis, Debye):
    X=              0.9114    Y=              3.2212    Z=             -0.2380  Tot=              3.3561
 Quadrupole moment (field-independent basis, Debye-Ang):
   XX=            -64.3452   YY=            -81.9420   ZZ=            -87.1223
   XY=              1.3076   XZ=             -0.9141   YZ=             -2.1153

 Normal termination of Gaussian 16 at Thu Jul 23 17:24:14 2020.
