 Gaussian 16, Revision A.03,
 Gaussian 16:  EM64L-G16RevA.03 25-Dec-2016

 ---------------------------------------------------------------
 #P uLC-wPBE/cc-pVDZ iop(3/107=0078300000, 3/108=0078300000) opt
 ---------------------------------------------------------------

 -----------
 H32 C50 N10
 -----------
 Symbolic Z-matrix:
 Charge =  0 Multiplicity = 1

 SCF Done:  E(ULC-wPBE) =  -2469.55451694     A.U. after   16 cycles
 SCF Done:  E(ULC-wPBE) =  -2469.63545044     A.U. after   14 cycles
 SCF Done:  E(ULC-wPBE) =  -2469.69735388     A.U. after   15 cycles
 SCF Done:  E(ULC-wPBE) =  -2469.71430191     A.U. after   16 cycles
 SCF Done:  E(ULC-wPBE) =  -2469.72237309     A.U. after   17 cycles
 SCF Done:  E(ULC-wPBE) =  -2469.72902709     A.U. after   17 cycles
 SCF Done:  E(ULC-wPBE) =  -2469.47633671     A.U. after   17 cycles
 SCF Done:  E(ULC-wPBE) =  -2469.73378970     A.U. after   15 cycles
 SCF Done:  E(ULC-wPBE) =  -2469.73675453     A.U. after   16 cycles
 SCF Done:  E(ULC-wPBE) =  -2469.73715674     A.U. after   14 cycles
 SCF Done:  E(ULC-wPBE) =  -2469.73727339     A.U. after   13 cycles
 SCF Done:  E(ULC-wPBE) =  -2469.73735759     A.U. after   15 cycles
 SCF Done:  E(ULC-wPBE) =  -2469.73737432     A.U. after   12 cycles
 SCF Done:  E(ULC-wPBE) =  -2469.73738911     A.U. after   12 cycles
 SCF Done:  E(ULC-wPBE) =  -2469.73739119     A.U. after   11 cycles
 SCF Done:  E(ULC-wPBE) =  -2469.73739131     A.U. after    7 cycles
 SCF Done:  E(ULC-wPBE) =  -2469.73739141     A.U. after    7 cycles
 Optimization completed.
    -- Stationary point found.

                         Standard orientation:
 ---------------------------------------------------------------------
 Center     Atomic      Atomic             Coordinates (Angstroms)
 Number     Number       Type             X           Y           Z
 ---------------------------------------------------------------------
      1          6           0      -20.429472    1.041322   -0.007653
      2          6           0      -19.568295    2.134654    0.165918
      3          6           0      -18.188106    1.910721    0.178636
      4          6           0      -17.714399    0.592439    0.015649
      5          7           0      -18.537778   -0.468978   -0.152325
      6          6           0      -19.859751   -0.232611   -0.161102
      7          6           0      -16.251116    0.306908    0.021873
      8          7           0      -15.420968    1.362701    0.188559
      9          6           0      -14.102414    1.129069    0.189274
     10          6           0      -13.510645   -0.145402    0.020072
     11          6           0      -14.396510   -1.232619   -0.143459
     12          6           0      -15.773404   -1.009907   -0.139788
     13          6           0      -12.042799   -0.318667    0.024236
     14          6           0      -11.420746   -1.447523    0.595745
     15          6           0      -10.028580   -1.554861    0.569226
     16          6           0       -9.266982   -0.524881   -0.024266
     17          7           0       -9.844871    0.565924   -0.578803
     18          6           0      -11.180340    0.645488   -0.552799
     19          6           0       -7.775178   -0.582462   -0.057311
     20          7           0       -7.122189    0.602665   -0.058323
     21          6           0       -5.784538    0.578522   -0.075316
     22          6           0       -4.991643   -0.595124   -0.087435
     23          6           0       -5.691204   -1.819030   -0.107609
     24          6           0       -7.087647   -1.814885   -0.096330
     25          6           0       -3.515175   -0.530321   -0.093095
     26          6           0       -2.723060   -1.444256   -0.821791
     27          6           0       -1.333031   -1.333759   -0.789988
     28          6           0       -0.748144   -0.300220   -0.029348
     29          7           0       -1.487200    0.582336    0.683009
     30          6           0       -2.819644    0.457057    0.645337
     31          6           0        0.730205   -0.135153    0.022045
     32          7           0        1.469281   -1.018500   -0.689445
     33          6           0        2.801670   -0.893407   -0.651172
     34          6           0        3.497678    0.093276    0.087800
     35          6           0        2.705312    1.008803    0.814474
     36          6           0        1.315235    0.899161    0.781497
     37          6           0        4.974164    0.157622    0.085266
     38          6           0        5.674567    1.383505    0.112543
     39          6           0        7.069320    1.383676    0.107542
     40          6           0        7.751888    0.150165    0.068278
     41          7           0        7.101595   -1.037116    0.051080
     42          6           0        5.763034   -1.017605    0.063714
     43          6           0        9.239333    0.102771    0.044724
     44          7           0        9.889195    1.290638    0.056379
     45          6           0       11.227317    1.270927    0.028054
     46          6           0       12.016440    0.096902   -0.021756
     47          6           0       11.316792   -1.129848   -0.026630
     48          6           0        9.922205   -1.130363    0.010889
     49          6           0       13.492462    0.165304   -0.054112
     50          6           0       14.186656    1.177664   -0.752467
     51          6           0       15.581587    1.192569   -0.741402
     52          6           0       16.270432    0.185605   -0.034817
     53          7           0       15.625759   -0.790450    0.646544
     54          6           0       14.287138   -0.784482    0.630801
     55          6           0       17.760756    0.154804   -0.010827
     56          7           0       18.397745    1.131954   -0.697952
     57          6           0       19.740601    1.121990   -0.688608
     58          6           0       20.512879    0.163823   -0.012874
     59          6           0       19.843954   -0.844481    0.696332
     60          6           0       18.445672   -0.852392    0.700043
     61          1           0      -21.521177    1.168028   -0.024479
     62          1           0      -19.969227    3.151352    0.290223
     63          1           0      -17.457307    2.719001    0.310709
     64          1           0      -20.504779   -1.116783   -0.299706
     65          1           0      -13.460246    2.009954    0.358611
     66          1           0      -14.001142   -2.247903   -0.297547
     67          1           0      -16.502173   -1.820073   -0.270890
     68          1           0      -12.025307   -2.222539    1.089659
     69          1           0       -9.535054   -2.414926    1.043046
     70          1           0      -11.612943    1.531441   -1.048972
     71          1           0       -5.291733    1.565819   -0.102378
     72          1           0       -5.141450   -2.771826   -0.117279
     73          1           0       -7.640406   -2.764128   -0.131397
     74          1           0       -3.201470   -2.224869   -1.432057
     75          1           0       -0.675565   -2.014142   -1.346288
     76          1           0       -3.385757    1.175419    1.262107
     77          1           0        3.367402   -1.611565   -1.268640
     78          1           0        3.183673    1.790221    1.423631
     79          1           0        0.657859    1.580984    1.336134
     80          1           0        5.121799    2.334809    0.113461
     81          1           0        7.657674    2.310118    0.120721
     82          1           0        5.270547   -2.004658    0.081026
     83          1           0       11.721002    2.256933    0.068637
     84          1           0       11.868441   -2.079729   -0.085337
     85          1           0        9.334270   -2.057106    0.001325
     86          1           0       13.630340    1.935493   -1.323750
     87          1           0       16.166464    1.952576   -1.275195
     88          1           0       13.798486   -1.577975    1.221858
     89          1           0       20.230764    1.930456   -1.257052
     90          1           0       21.610555    0.211215   -0.044657
     91          1           0       20.407267   -1.616381    1.241094
     92          1           0       17.858370   -1.610375    1.234238
 ---------------------------------------------------------------------

 The electronic state is 1-A.
 Alpha  occ. eigenvalues --  -14.04976 -14.04965 -14.04950 -14.04934 -14.04801
 Alpha  occ. eigenvalues --  -14.04757 -14.04501 -14.04498 -14.04472 -14.04409
 Alpha  occ. eigenvalues --   -9.99103  -9.99056  -9.98953  -9.98942  -9.98928
 Alpha  occ. eigenvalues --   -9.98886  -9.98731  -9.98725  -9.98647  -9.98634
 Alpha  occ. eigenvalues --   -9.98631  -9.98612  -9.98598  -9.98598  -9.98513
 Alpha  occ. eigenvalues --   -9.98453  -9.98438  -9.98356  -9.98170  -9.98164
 Alpha  occ. eigenvalues --   -9.97415  -9.97410  -9.97397  -9.97391  -9.97337
 Alpha  occ. eigenvalues --   -9.97320  -9.97303  -9.97253  -9.97234  -9.97220
 Alpha  occ. eigenvalues --   -9.97127  -9.97098  -9.97088  -9.97010  -9.96968
 Alpha  occ. eigenvalues --   -9.96927  -9.96731  -9.96711  -9.96597  -9.96549
 Alpha  occ. eigenvalues --   -9.95995  -9.95984  -9.95899  -9.95883  -9.95866
 Alpha  occ. eigenvalues --   -9.95820  -9.95681  -9.95662  -9.95487  -9.95465
 Alpha  occ. eigenvalues --   -0.92204  -0.92077  -0.91968  -0.91775  -0.91742
 Alpha  occ. eigenvalues --   -0.90567  -0.90346  -0.90112  -0.90021  -0.89880
 Alpha  occ. eigenvalues --   -0.81130  -0.80965  -0.80743  -0.80607  -0.77716
 Alpha  occ. eigenvalues --   -0.77687  -0.77603  -0.77183  -0.76959  -0.76816
 Alpha  occ. eigenvalues --   -0.76735  -0.76559  -0.76318  -0.76045  -0.75586
 Alpha  occ. eigenvalues --   -0.73964  -0.72969  -0.71876  -0.70789  -0.69875
 Alpha  occ. eigenvalues --   -0.66389  -0.65251  -0.64493  -0.64104  -0.63768
 Alpha  occ. eigenvalues --   -0.63504  -0.63023  -0.62496  -0.62271  -0.61450
 Alpha  occ. eigenvalues --   -0.61319  -0.60650  -0.60119  -0.59756  -0.59426
 Alpha  occ. eigenvalues --   -0.59193  -0.58795  -0.58220  -0.57765  -0.57480
 Alpha  occ. eigenvalues --   -0.53583  -0.53297  -0.52916  -0.52520  -0.52127
 Alpha  occ. eigenvalues --   -0.51109  -0.50854  -0.50520  -0.50143  -0.49873
 Alpha  occ. eigenvalues --   -0.49394  -0.49063  -0.48712  -0.48417  -0.47728
 Alpha  occ. eigenvalues --   -0.47540  -0.47300  -0.46754  -0.46073  -0.45837
 Alpha  occ. eigenvalues --   -0.45545  -0.45062  -0.44800  -0.44637  -0.44275
 Alpha  occ. eigenvalues --   -0.44069  -0.43916  -0.43742  -0.43599  -0.43417
 Alpha  occ. eigenvalues --   -0.42802  -0.42642  -0.42397  -0.42313  -0.42287
 Alpha  occ. eigenvalues --   -0.42114  -0.41899  -0.41578  -0.41353  -0.40994
 Alpha  occ. eigenvalues --   -0.40860  -0.40659  -0.40428  -0.40090  -0.39976
 Alpha  occ. eigenvalues --   -0.39655  -0.39598  -0.39319  -0.39186  -0.39164
 Alpha  occ. eigenvalues --   -0.39012  -0.38805  -0.38331  -0.38187  -0.37726
 Alpha  occ. eigenvalues --   -0.37461  -0.36889  -0.36635  -0.36404  -0.35985
 Alpha  occ. eigenvalues --   -0.35786  -0.34254  -0.33581  -0.32870  -0.32137
 Alpha  occ. eigenvalues --   -0.30953  -0.30931  -0.30755  -0.30658  -0.30517
 Alpha  occ. eigenvalues --   -0.30397  -0.30180  -0.30094  -0.29880  -0.29726
 Alpha  occ. eigenvalues --   -0.29531  -0.28118  -0.27555  -0.27369  -0.26953
 Alpha  occ. eigenvalues --   -0.26847  -0.26751  -0.26316  -0.25965  -0.25753
 Alpha  occ. eigenvalues --   -0.25494  -0.25446  -0.25196  -0.25091  -0.24580
 Alpha  occ. eigenvalues --   -0.23865
 Alpha virt. eigenvalues --   -0.07106  -0.06158  -0.05106  -0.03780  -0.03009
 Alpha virt. eigenvalues --   -0.02823  -0.02787  -0.02593  -0.02481  -0.02296
 Alpha virt. eigenvalues --   -0.01837  -0.01414  -0.01056  -0.00916  -0.00795

  Beta  occ. eigenvalues --  -14.04976 -14.04965 -14.04950 -14.04934 -14.04801
  Beta  occ. eigenvalues --  -14.04757 -14.04501 -14.04498 -14.04472 -14.04409
  Beta  occ. eigenvalues --   -9.99103  -9.99056  -9.98953  -9.98942  -9.98928
  Beta  occ. eigenvalues --   -9.98886  -9.98731  -9.98725  -9.98647  -9.98634
  Beta  occ. eigenvalues --   -9.98631  -9.98612  -9.98598  -9.98598  -9.98513
  Beta  occ. eigenvalues --   -9.98453  -9.98438  -9.98356  -9.98170  -9.98164
  Beta  occ. eigenvalues --   -9.97415  -9.97410  -9.97397  -9.97391  -9.97337
  Beta  occ. eigenvalues --   -9.97320  -9.97303  -9.97253  -9.97234  -9.97220
  Beta  occ. eigenvalues --   -9.97127  -9.97098  -9.97088  -9.97010  -9.96968
  Beta  occ. eigenvalues --   -9.96927  -9.96731  -9.96711  -9.96597  -9.96549
  Beta  occ. eigenvalues --   -9.95995  -9.95984  -9.95899  -9.95883  -9.95866
  Beta  occ. eigenvalues --   -9.95820  -9.95681  -9.95662  -9.95487  -9.95465
  Beta  occ. eigenvalues --   -0.92204  -0.92077  -0.91968  -0.91775  -0.91742
  Beta  occ. eigenvalues --   -0.90567  -0.90346  -0.90112  -0.90021  -0.89880
  Beta  occ. eigenvalues --   -0.81130  -0.80965  -0.80743  -0.80607  -0.77716
  Beta  occ. eigenvalues --   -0.77687  -0.77603  -0.77183  -0.76959  -0.76816
  Beta  occ. eigenvalues --   -0.76735  -0.76559  -0.76318  -0.76045  -0.75586
  Beta  occ. eigenvalues --   -0.73964  -0.72969  -0.71876  -0.70789  -0.69875
  Beta  occ. eigenvalues --   -0.66389  -0.65251  -0.64493  -0.64104  -0.63768
  Beta  occ. eigenvalues --   -0.63504  -0.63023  -0.62496  -0.62271  -0.61450
  Beta  occ. eigenvalues --   -0.61319  -0.60650  -0.60119  -0.59756  -0.59426
  Beta  occ. eigenvalues --   -0.59193  -0.58795  -0.58220  -0.57765  -0.57480
  Beta  occ. eigenvalues --   -0.53583  -0.53297  -0.52916  -0.52520  -0.52127
  Beta  occ. eigenvalues --   -0.51109  -0.50854  -0.50520  -0.50143  -0.49873
  Beta  occ. eigenvalues --   -0.49394  -0.49063  -0.48712  -0.48417  -0.47728
  Beta  occ. eigenvalues --   -0.47540  -0.47300  -0.46754  -0.46073  -0.45837
  Beta  occ. eigenvalues --   -0.45545  -0.45062  -0.44800  -0.44637  -0.44275
  Beta  occ. eigenvalues --   -0.44069  -0.43916  -0.43742  -0.43599  -0.43417
  Beta  occ. eigenvalues --   -0.42802  -0.42642  -0.42397  -0.42313  -0.42287
  Beta  occ. eigenvalues --   -0.42114  -0.41899  -0.41578  -0.41353  -0.40994
  Beta  occ. eigenvalues --   -0.40860  -0.40659  -0.40428  -0.40090  -0.39976
  Beta  occ. eigenvalues --   -0.39655  -0.39598  -0.39319  -0.39186  -0.39164
  Beta  occ. eigenvalues --   -0.39012  -0.38805  -0.38331  -0.38187  -0.37726
  Beta  occ. eigenvalues --   -0.37461  -0.36889  -0.36635  -0.36404  -0.35985
  Beta  occ. eigenvalues --   -0.35786  -0.34254  -0.33581  -0.32870  -0.32137
  Beta  occ. eigenvalues --   -0.30953  -0.30931  -0.30755  -0.30658  -0.30517
  Beta  occ. eigenvalues --   -0.30397  -0.30180  -0.30094  -0.29880  -0.29726
  Beta  occ. eigenvalues --   -0.29531  -0.28118  -0.27555  -0.27369  -0.26953
  Beta  occ. eigenvalues --   -0.26847  -0.26751  -0.26316  -0.25965  -0.25753
  Beta  occ. eigenvalues --   -0.25494  -0.25446  -0.25196  -0.25091  -0.24580
  Beta  occ. eigenvalues --   -0.23865
  Beta virt. eigenvalues --   -0.07106  -0.06158  -0.05106  -0.03780  -0.03009
  Beta virt. eigenvalues --   -0.02823  -0.02787  -0.02593  -0.02481  -0.02296
  Beta virt. eigenvalues --   -0.01837  -0.01414  -0.01056  -0.00916  -0.00795

 Mulliken charges and spin densities:
               1          2
     1  C   -0.020170   0.000000
     2  C    0.077657  -0.000000
     3  C    0.045638   0.000000
     4  C    0.056317   0.000000
     5  N   -0.200275  -0.000000
     6  C    0.088503   0.000000
     7  C    0.061686   0.000000
     8  N   -0.197558  -0.000000
     9  C    0.086161   0.000000
    10  C   -0.035635  -0.000000
    11  C    0.066937   0.000000
    12  C    0.058474  -0.000000
    13  C   -0.029321   0.000000
    14  C    0.059567  -0.000000
    15  C    0.020308  -0.000000
    16  C    0.070534   0.000000
    17  N   -0.163607   0.000000
    18  C    0.081038  -0.000000
    19  C    0.070700  -0.000000
    20  N   -0.163336   0.000000
    21  C    0.081199   0.000000
    22  C   -0.031658  -0.000000
    23  C    0.061536  -0.000000
    24  C    0.020656   0.000000
    25  C   -0.034646   0.000000
    26  C    0.066618  -0.000000
    27  C    0.058833  -0.000000
    28  C    0.060463  -0.000000
    29  N   -0.198395  -0.000000
    30  C    0.087047   0.000000
    31  C    0.060238   0.000000
    32  N   -0.198731  -0.000000
    33  C    0.086087   0.000000
    34  C   -0.034021  -0.000000
    35  C    0.066541  -0.000000
    36  C    0.059098   0.000000
    37  C   -0.034205  -0.000000
    38  C    0.066543   0.000000
    39  C    0.058979  -0.000000
    40  C    0.060193   0.000000
    41  N   -0.198424  -0.000000
    42  C    0.086087   0.000000
    43  C    0.059985  -0.000000
    44  N   -0.198726   0.000000
    45  C    0.086303   0.000000
    46  C   -0.033390   0.000000
    47  C    0.066308   0.000000
    48  C    0.058816  -0.000000
    49  C   -0.034224  -0.000000
    50  C    0.066706  -0.000000
    51  C    0.058540   0.000000
    52  C    0.061238  -0.000000
    53  N   -0.197775   0.000000
    54  C    0.085486  -0.000000
    55  C    0.056382   0.000000
    56  N   -0.199915  -0.000000
    57  C    0.088650   0.000000
    58  C   -0.020195  -0.000000
    59  C    0.077581   0.000000
    60  C    0.045414  -0.000000
    61  H   -0.013929  -0.000000
    62  H   -0.008991   0.000000
    63  H   -0.015252  -0.000000
    64  H   -0.003197  -0.000000
    65  H   -0.002807   0.000000
    66  H   -0.021731  -0.000000
    67  H   -0.017917   0.000000
    68  H   -0.020883   0.000000
    69  H   -0.018800   0.000000
    70  H   -0.001348   0.000000
    71  H   -0.001074   0.000000
    72  H   -0.021122   0.000000
    73  H   -0.018209   0.000000
    74  H   -0.020255  -0.000000
    75  H   -0.016620   0.000000
    76  H   -0.003322   0.000000
    77  H   -0.004778   0.000000
    78  H   -0.018965   0.000000
    79  H   -0.015938   0.000000
    80  H   -0.019060  -0.000000
    81  H   -0.016595  -0.000000
    82  H   -0.004999  -0.000000
    83  H   -0.006551   0.000000
    84  H   -0.017610  -0.000000
    85  H   -0.016411   0.000000
    86  H   -0.018080   0.000000
    87  H   -0.017067   0.000000
    88  H   -0.007063  -0.000000
    89  H   -0.002871  -0.000000
    90  H   -0.013909  -0.000000
    91  H   -0.009291   0.000000
    92  H   -0.016195  -0.000000
 Sum of Mulliken charges =  -0.00000   0.00000

 Dipole moment (field-independent basis, Debye):
    X=             -0.0682    Y=             -2.4996    Z=              0.6609  Tot=              2.5864
 Quadrupole moment (field-independent basis, Debye-Ang):
   XX=           -234.2461   YY=           -321.4337   ZZ=           -346.8461
   XY=             13.3351   XZ=             -4.3961   YZ=             -0.2127

 Normal termination of Gaussian 16 at Sat Jul 25 12:14:18 2020.
