 Gaussian 16, Revision A.03,
 Gaussian 16:  EM64L-G16RevA.03 25-Dec-2016

 ---------------------------------------------------------------
 #P uLC-wPBE/cc-pVDZ iop(3/107=0291900000, 3/108=0291900000) opt
 ---------------------------------------------------------------

 ----------------
 H22 C45 S5 N5 F5
 ----------------
 Symbolic Z-matrix:
 Charge =  0 Multiplicity = 1

 SCF Done:  E(ULC-wPBE) =  -4489.38323077     A.U. after   16 cycles
 SCF Done:  E(ULC-wPBE) =  -4489.46029719     A.U. after   13 cycles
 SCF Done:  E(ULC-wPBE) =  -4489.52259973     A.U. after   14 cycles
 SCF Done:  E(ULC-wPBE) =  -4489.53753534     A.U. after   14 cycles
 SCF Done:  E(ULC-wPBE) =  -4489.54153334     A.U. after   14 cycles
 SCF Done:  E(ULC-wPBE) =  -4489.54299628     A.U. after   13 cycles
 SCF Done:  E(ULC-wPBE) =  -4489.54402435     A.U. after   14 cycles
 SCF Done:  E(ULC-wPBE) =  -4489.54439823     A.U. after   13 cycles
 SCF Done:  E(ULC-wPBE) =  -4489.54447425     A.U. after   12 cycles
 SCF Done:  E(ULC-wPBE) =  -4489.54450710     A.U. after   11 cycles
 SCF Done:  E(ULC-wPBE) =  -4489.54451833     A.U. after   11 cycles
 SCF Done:  E(ULC-wPBE) =  -4489.54452399     A.U. after   11 cycles
 SCF Done:  E(ULC-wPBE) =  -4489.54452647     A.U. after    8 cycles
 SCF Done:  E(ULC-wPBE) =  -4489.54452748     A.U. after    8 cycles
 SCF Done:  E(ULC-wPBE) =  -4489.54452749     A.U. after    7 cycles
 SCF Done:  E(ULC-wPBE) =  -4489.54452754     A.U. after    7 cycles
 SCF Done:  E(ULC-wPBE) =  -4489.54452747     A.U. after    7 cycles
 SCF Done:  E(ULC-wPBE) =  -4489.54452762     A.U. after    7 cycles
 SCF Done:  E(ULC-wPBE) =  -4489.54452757     A.U. after    7 cycles
 Optimization completed.
    -- Stationary point found.

                         Standard orientation:
 ---------------------------------------------------------------------
 Center     Atomic      Atomic             Coordinates (Angstroms)
 Number     Number       Type             X           Y           Z
 ---------------------------------------------------------------------
      1          6           0      -17.009779    4.839792    0.855228
      2          6           0      -15.630944    4.746325    1.041952
      3          7           0      -14.930841    3.638187    0.803310
      4          6           0      -15.565004    2.541438    0.359808
      5          6           0      -16.950353    2.566645    0.151209
      6          9           0      -17.591563    1.466893   -0.293725
      7          6           0      -17.686752    3.713911    0.395855
      8          6           0      -14.725738    1.358372    0.121056
      9          6           0      -15.042577    0.096093   -0.329446
     10          6           0      -13.909775   -0.755105   -0.414003
     11          6           0      -12.741533   -0.136270   -0.029663
     12         16           0      -13.029626    1.502417    0.448394
     13          6           0      -11.388775   -0.714610    0.001881
     14          6           0      -10.236928    0.065781   -0.187689
     15          7           0       -8.999042   -0.416797   -0.173245
     16          6           0       -8.797694   -1.729032    0.024158
     17          6           0       -9.897195   -2.575734    0.215026
     18          9           0       -9.712332   -3.895636    0.420409
     19          6           0      -11.188971   -2.083313    0.212778
     20          6           0       -7.401663   -2.183569    0.027755
     21          6           0       -6.856853   -3.437625    0.195513
     22          6           0       -5.439205   -3.431693    0.128709
     23          6           0       -4.915366   -2.177263   -0.090001
     24         16           0       -6.168318   -0.988312   -0.207812
     25          6           0       -3.496993   -1.807766   -0.218727
     26          6           0       -3.075286   -0.717282   -0.997797
     27          7           0       -1.807916   -0.348953   -1.149048
     28          6           0       -0.838583   -1.048441   -0.538031
     29          6           0       -1.178551   -2.153496    0.251171
     30          9           0       -0.208150   -2.856179    0.871943
     31          6           0       -2.494326   -2.539560    0.425537
     32          6           0        0.540498   -0.580011   -0.754142
     33          6           0        0.886474    0.504068   -1.528815
     34          6           0        2.283631    0.736084   -1.566475
     35          6           0        3.000863   -0.173352   -0.821379
     36         16           0        1.948251   -1.318138   -0.061033
     37          6           0        4.458665   -0.239527   -0.636189
     38          6           0        5.130234   -1.451101   -0.402369
     39          7           0        6.443377   -1.560963   -0.234173
     40          6           0        7.212246   -0.462090   -0.295355
     41          6           0        6.617260    0.782867   -0.532738
     42          9           0        7.384776    1.890964   -0.589667
     43          6           0        5.250870    0.911549   -0.697042
     44          6           0        8.657566   -0.663777   -0.100980
     45          6           0        9.253741   -1.883278    0.127983
     46          6           0       10.659629   -1.794160    0.279789
     47          6           0       11.133304   -0.506143    0.164665
     48         16           0        9.838683    0.605926   -0.124009
     49          6           0       12.526626   -0.043626    0.262350
     50          6           0       12.992410    1.084856   -0.429917
     51          7           0       14.242538    1.532275   -0.372940
     52          6           0       15.149555    0.885557    0.375804
     53          6           0       14.762984   -0.255870    1.091617
     54          9           0       15.657580   -0.917740    1.853808
     55          6           0       13.462991   -0.723340    1.049524
     56          6           0       16.509336    1.439990    0.387816
     57          6           0       17.649350    1.024396    1.040226
     58          6           0       18.769806    1.860655    0.773475
     59          6           0       18.458968    2.891468   -0.073623
     60         16           0       16.812095    2.863700   -0.557821
     61          1           0      -17.542115    5.772431    1.064363
     62          1           0      -15.055531    5.608339    1.402826
     63          1           0      -18.767388    3.703715    0.223470
     64          1           0      -16.054688   -0.207295   -0.597720
     65          1           0      -13.953577   -1.786238   -0.774878
     66          1           0      -10.327979    1.144340   -0.372278
     67          1           0      -12.019865   -2.771692    0.393567
     68          1           0       -7.456364   -4.334213    0.354261
     69          1           0       -4.825963   -4.332963    0.212432
     70          1           0       -3.815984   -0.113736   -1.539352
     71          1           0       -2.718344   -3.391797    1.073826
     72          1           0        0.131004    1.094679   -2.050450
     73          1           0        2.751564    1.534870   -2.147939
     74          1           0        4.563318   -2.390863   -0.359867
     75          1           0        4.823874    1.906791   -0.851793
     76          1           0        8.667900   -2.803287    0.173352
     77          1           0       11.309482   -2.658005    0.442783
     78          1           0       12.310833    1.652476   -1.077509
     79          1           0       13.194910   -1.600875    1.645424
     80          1           0       17.681045    0.148568    1.688878
     81          1           0       19.765606    1.701180    1.194904
     82          1           0       19.122323    3.676234   -0.443063
 ---------------------------------------------------------------------

 The electronic state is 1-A.
 Alpha  occ. eigenvalues --  -88.27183 -88.27114 -88.26950 -88.26937 -88.25593
 Alpha  occ. eigenvalues --  -24.47045 -24.46938 -24.46826 -24.46659 -24.46107
 Alpha  occ. eigenvalues --  -14.17990 -14.17950 -14.17608 -14.17481 -14.17096
 Alpha  occ. eigenvalues --  -10.16812 -10.16731 -10.16444 -10.16298 -10.15893
 Alpha  occ. eigenvalues --  -10.13204 -10.12972 -10.12789 -10.12647 -10.12151
 Alpha  occ. eigenvalues --  -10.11302 -10.11219 -10.11101 -10.10996 -10.10933
 Alpha  occ. eigenvalues --  -10.10902 -10.10883 -10.10864 -10.10755 -10.10723
 Alpha  occ. eigenvalues --  -10.10640 -10.10549 -10.10541 -10.10504 -10.10448
 Alpha  occ. eigenvalues --  -10.10314 -10.10300 -10.10075 -10.10031 -10.09877
 Alpha  occ. eigenvalues --  -10.09747 -10.09433 -10.09357 -10.09347 -10.08597
 Alpha  occ. eigenvalues --  -10.07964 -10.07935 -10.07796 -10.07768 -10.07669
 Alpha  occ. eigenvalues --  -10.07410 -10.07274 -10.07073 -10.06531 -10.06314
 Alpha  occ. eigenvalues --   -7.87688  -7.87599  -7.87443  -7.87436  -7.86094
 Alpha  occ. eigenvalues --   -5.89545  -5.89455  -5.89300  -5.89292  -5.89034
 Alpha  occ. eigenvalues --   -5.88947  -5.88789  -5.88784  -5.88653  -5.88570
 Alpha  occ. eigenvalues --   -5.88408  -5.88406  -5.87939  -5.87431  -5.87084
 Alpha  occ. eigenvalues --   -1.31168  -1.31064  -1.30942  -1.30783  -1.30228
 Alpha  occ. eigenvalues --   -1.06034  -1.05953  -1.05680  -1.05544  -1.05162
 Alpha  occ. eigenvalues --   -0.99852  -0.99621  -0.99318  -0.99106  -0.97623
 Alpha  occ. eigenvalues --   -0.93549  -0.93078  -0.92571  -0.92121  -0.92034
 Alpha  occ. eigenvalues --   -0.89881  -0.89518  -0.89132  -0.88693  -0.88248
 Alpha  occ. eigenvalues --   -0.85561  -0.84849  -0.84660  -0.84402  -0.84307
 Alpha  occ. eigenvalues --   -0.83780  -0.82992  -0.82627  -0.81312  -0.79932
 Alpha  occ. eigenvalues --   -0.77435  -0.76297  -0.75903  -0.75414  -0.75106
 Alpha  occ. eigenvalues --   -0.74897  -0.74500  -0.74121  -0.73506  -0.72705
 Alpha  occ. eigenvalues --   -0.68309  -0.68085  -0.67951  -0.67622  -0.67330
 Alpha  occ. eigenvalues --   -0.66921  -0.66667  -0.66362  -0.65809  -0.64755
 Alpha  occ. eigenvalues --   -0.64446  -0.63659  -0.63304  -0.62919  -0.62661
 Alpha  occ. eigenvalues --   -0.62430  -0.62398  -0.61733  -0.61554  -0.61403
 Alpha  occ. eigenvalues --   -0.61219  -0.61048  -0.60699  -0.60333  -0.60147
 Alpha  occ. eigenvalues --   -0.58740  -0.58321  -0.58251  -0.58109  -0.57987
 Alpha  occ. eigenvalues --   -0.57826  -0.57422  -0.56933  -0.56000  -0.55186
 Alpha  occ. eigenvalues --   -0.53649  -0.52829  -0.52608  -0.52528  -0.52306
 Alpha  occ. eigenvalues --   -0.52159  -0.52007  -0.51778  -0.51717  -0.51601
 Alpha  occ. eigenvalues --   -0.51477  -0.51405  -0.51247  -0.51120  -0.50940
 Alpha  occ. eigenvalues --   -0.50909  -0.50612  -0.50474  -0.50271  -0.49926
 Alpha  occ. eigenvalues --   -0.49787  -0.49379  -0.49021  -0.48763  -0.48596
 Alpha  occ. eigenvalues --   -0.48401  -0.48239  -0.48065  -0.47976  -0.47778
 Alpha  occ. eigenvalues --   -0.47268  -0.46962  -0.46712  -0.46548  -0.46136
 Alpha  occ. eigenvalues --   -0.45707  -0.44278  -0.44021  -0.43490  -0.43236
 Alpha  occ. eigenvalues --   -0.43003  -0.42889  -0.42025  -0.40876  -0.39823
 Alpha  occ. eigenvalues --   -0.39338  -0.37819  -0.37550  -0.37287  -0.36994
 Alpha  occ. eigenvalues --   -0.36592  -0.36520  -0.36371  -0.36193  -0.36039
 Alpha  occ. eigenvalues --   -0.35553  -0.35123  -0.34999  -0.34958  -0.34756
 Alpha  occ. eigenvalues --   -0.33624  -0.33369  -0.31957  -0.30322  -0.28856
 Alpha  occ. eigenvalues --   -0.27765
 Alpha virt. eigenvalues --   -0.02874  -0.01724  -0.00224   0.01289   0.02361
 Alpha virt. eigenvalues --    0.03743   0.03933   0.04071   0.04310   0.04788
 Alpha virt. eigenvalues --    0.06049   0.07564   0.08940   0.10241   0.11122

  Beta  occ. eigenvalues --  -88.27183 -88.27114 -88.26950 -88.26937 -88.25593
  Beta  occ. eigenvalues --  -24.47045 -24.46938 -24.46826 -24.46659 -24.46107
  Beta  occ. eigenvalues --  -14.17990 -14.17950 -14.17608 -14.17481 -14.17096
  Beta  occ. eigenvalues --  -10.16812 -10.16731 -10.16444 -10.16298 -10.15893
  Beta  occ. eigenvalues --  -10.13204 -10.12972 -10.12789 -10.12647 -10.12151
  Beta  occ. eigenvalues --  -10.11302 -10.11219 -10.11101 -10.10996 -10.10933
  Beta  occ. eigenvalues --  -10.10902 -10.10883 -10.10864 -10.10755 -10.10723
  Beta  occ. eigenvalues --  -10.10640 -10.10549 -10.10541 -10.10504 -10.10448
  Beta  occ. eigenvalues --  -10.10314 -10.10300 -10.10075 -10.10031 -10.09877
  Beta  occ. eigenvalues --  -10.09747 -10.09433 -10.09357 -10.09347 -10.08597
  Beta  occ. eigenvalues --  -10.07964 -10.07935 -10.07796 -10.07768 -10.07669
  Beta  occ. eigenvalues --  -10.07410 -10.07274 -10.07073 -10.06531 -10.06314
  Beta  occ. eigenvalues --   -7.87688  -7.87599  -7.87443  -7.87436  -7.86094
  Beta  occ. eigenvalues --   -5.89545  -5.89455  -5.89300  -5.89292  -5.89034
  Beta  occ. eigenvalues --   -5.88947  -5.88789  -5.88784  -5.88653  -5.88570
  Beta  occ. eigenvalues --   -5.88408  -5.88406  -5.87939  -5.87431  -5.87084
  Beta  occ. eigenvalues --   -1.31168  -1.31064  -1.30942  -1.30783  -1.30228
  Beta  occ. eigenvalues --   -1.06034  -1.05953  -1.05680  -1.05544  -1.05162
  Beta  occ. eigenvalues --   -0.99852  -0.99621  -0.99318  -0.99106  -0.97623
  Beta  occ. eigenvalues --   -0.93549  -0.93078  -0.92571  -0.92121  -0.92034
  Beta  occ. eigenvalues --   -0.89881  -0.89518  -0.89132  -0.88693  -0.88248
  Beta  occ. eigenvalues --   -0.85561  -0.84849  -0.84660  -0.84402  -0.84307
  Beta  occ. eigenvalues --   -0.83780  -0.82992  -0.82627  -0.81312  -0.79932
  Beta  occ. eigenvalues --   -0.77435  -0.76297  -0.75903  -0.75414  -0.75106
  Beta  occ. eigenvalues --   -0.74897  -0.74500  -0.74121  -0.73506  -0.72705
  Beta  occ. eigenvalues --   -0.68309  -0.68085  -0.67951  -0.67622  -0.67330
  Beta  occ. eigenvalues --   -0.66921  -0.66667  -0.66362  -0.65809  -0.64755
  Beta  occ. eigenvalues --   -0.64446  -0.63659  -0.63304  -0.62919  -0.62661
  Beta  occ. eigenvalues --   -0.62430  -0.62398  -0.61733  -0.61554  -0.61403
  Beta  occ. eigenvalues --   -0.61219  -0.61048  -0.60699  -0.60333  -0.60147
  Beta  occ. eigenvalues --   -0.58740  -0.58321  -0.58251  -0.58109  -0.57987
  Beta  occ. eigenvalues --   -0.57826  -0.57422  -0.56933  -0.56000  -0.55186
  Beta  occ. eigenvalues --   -0.53649  -0.52829  -0.52608  -0.52528  -0.52306
  Beta  occ. eigenvalues --   -0.52159  -0.52007  -0.51778  -0.51717  -0.51601
  Beta  occ. eigenvalues --   -0.51477  -0.51405  -0.51247  -0.51120  -0.50940
  Beta  occ. eigenvalues --   -0.50909  -0.50612  -0.50474  -0.50271  -0.49926
  Beta  occ. eigenvalues --   -0.49787  -0.49379  -0.49021  -0.48763  -0.48596
  Beta  occ. eigenvalues --   -0.48401  -0.48239  -0.48065  -0.47976  -0.47778
  Beta  occ. eigenvalues --   -0.47268  -0.46962  -0.46712  -0.46548  -0.46136
  Beta  occ. eigenvalues --   -0.45707  -0.44278  -0.44021  -0.43490  -0.43236
  Beta  occ. eigenvalues --   -0.43003  -0.42889  -0.42025  -0.40876  -0.39823
  Beta  occ. eigenvalues --   -0.39338  -0.37819  -0.37550  -0.37287  -0.36994
  Beta  occ. eigenvalues --   -0.36592  -0.36520  -0.36371  -0.36193  -0.36039
  Beta  occ. eigenvalues --   -0.35553  -0.35123  -0.34999  -0.34958  -0.34756
  Beta  occ. eigenvalues --   -0.33624  -0.33369  -0.31957  -0.30322  -0.28856
  Beta  occ. eigenvalues --   -0.27765
  Beta virt. eigenvalues --   -0.02874  -0.01724  -0.00224   0.01289   0.02361
  Beta virt. eigenvalues --    0.03743   0.03933   0.04071   0.04310   0.04788
  Beta virt. eigenvalues --    0.06049   0.07564   0.08940   0.10241   0.11122

 Mulliken charges and spin densities:
               1          2
     1  C   -0.032548   0.000000
     2  C    0.089235  -0.000000
     3  N   -0.208675   0.000000
     4  C    0.107644   0.000000
     5  C    0.096765  -0.000000
     6  F   -0.123547  -0.000000
     7  C    0.065473  -0.000000
     8  C   -0.147893  -0.000000
     9  C    0.008586  -0.000000
    10  C    0.034656   0.000000
    11  C   -0.164817  -0.000000
    12  S    0.211712   0.000000
    13  C   -0.007498   0.000000
    14  C    0.091598   0.000000
    15  N   -0.206632  -0.000000
    16  C    0.113328   0.000000
    17  C    0.107108  -0.000000
    18  F   -0.122753   0.000000
    19  C    0.066586  -0.000000
    20  C   -0.150872  -0.000000
    21  C    0.004628  -0.000000
    22  C    0.036016   0.000000
    23  C   -0.164269  -0.000000
    24  S    0.212175   0.000000
    25  C   -0.008296  -0.000000
    26  C    0.087917   0.000000
    27  N   -0.191409   0.000000
    28  C    0.073372   0.000000
    29  C    0.108385  -0.000000
    30  F   -0.121603  -0.000000
    31  C    0.066202   0.000000
    32  C   -0.164196  -0.000000
    33  C    0.076720   0.000000
    34  C    0.033782  -0.000000
    35  C   -0.164187   0.000000
    36  S    0.174231   0.000000
    37  C   -0.003579  -0.000000
    38  C    0.086313  -0.000000
    39  N   -0.191397  -0.000000
    40  C    0.073126   0.000000
    41  C    0.108609   0.000000
    42  F   -0.121027  -0.000000
    43  C    0.066021  -0.000000
    44  C   -0.164841  -0.000000
    45  C    0.076296   0.000000
    46  C    0.033165   0.000000
    47  C   -0.163704  -0.000000
    48  S    0.174820   0.000000
    49  C   -0.004438   0.000000
    50  C    0.087377   0.000000
    51  N   -0.205776   0.000000
    52  C    0.120649  -0.000000
    53  C    0.106697   0.000000
    54  F   -0.123731  -0.000000
    55  C    0.064644  -0.000000
    56  C   -0.157159   0.000000
    57  C   -0.024721   0.000000
    58  C    0.064483  -0.000000
    59  C   -0.137022  -0.000000
    60  S    0.197308  -0.000000
    61  H    0.009649  -0.000000
    62  H    0.018370   0.000000
    63  H    0.020960   0.000000
    64  H   -0.001233   0.000000
    65  H   -0.006843   0.000000
    66  H    0.020433   0.000000
    67  H    0.009338   0.000000
    68  H   -0.002127   0.000000
    69  H   -0.006616  -0.000000
    70  H    0.018105  -0.000000
    71  H    0.009264   0.000000
    72  H    0.000993  -0.000000
    73  H   -0.004733  -0.000000
    74  H    0.016241  -0.000000
    75  H    0.009669   0.000000
    76  H   -0.000108  -0.000000
    77  H   -0.005746   0.000000
    78  H    0.017442   0.000000
    79  H    0.007870  -0.000000
    80  H   -0.002498  -0.000000
    81  H   -0.005018  -0.000000
    82  H    0.027549   0.000000
 Sum of Mulliken charges =  -0.00000   0.00000

 Dipole moment (field-independent basis, Debye):
    X=             -9.2091    Y=             -0.5522    Z=              0.6113  Tot=              9.2459
 Quadrupole moment (field-independent basis, Debye-Ang):
   XX=           -260.0711   YY=           -339.6952   ZZ=           -374.8707
   XY=            -31.6332   XZ=              4.6117   YZ=             -3.9763

 Normal termination of Gaussian 16 at Fri Jul 24 19:25:10 2020.
