 Gaussian 16, Revision A.03,
 Gaussian 16:  EM64L-G16RevA.03 25-Dec-2016

 ---------------------------------------------------------------
 #P uLC-wPBE/cc-pVDZ iop(3/107=0294800000, 3/108=0294800000) opt
 ---------------------------------------------------------------

 -----------
 H44 C70 N14
 -----------
 Symbolic Z-matrix:
 Charge =  0 Multiplicity = 1

 SCF Done:  E(ULC-wPBE) =  -3457.74581334     A.U. after   15 cycles
 SCF Done:  E(ULC-wPBE) =  -3457.84487758     A.U. after   13 cycles
 SCF Done:  E(ULC-wPBE) =  -3457.94442880     A.U. after   14 cycles
 SCF Done:  E(ULC-wPBE) =  -3457.97498723     A.U. after   14 cycles
 SCF Done:  E(ULC-wPBE) =  -3457.98252398     A.U. after   13 cycles
 SCF Done:  E(ULC-wPBE) =  -3457.98489784     A.U. after   15 cycles
 SCF Done:  E(ULC-wPBE) =  -3457.98556825     A.U. after   13 cycles
 SCF Done:  E(ULC-wPBE) =  -3457.98573222     A.U. after   12 cycles
 SCF Done:  E(ULC-wPBE) =  -3457.98576531     A.U. after   12 cycles
 SCF Done:  E(ULC-wPBE) =  -3457.98577216     A.U. after   11 cycles
 SCF Done:  E(ULC-wPBE) =  -3457.98577387     A.U. after   11 cycles
 SCF Done:  E(ULC-wPBE) =  -3457.98577441     A.U. after   10 cycles
 SCF Done:  E(ULC-wPBE) =  -3457.98577416     A.U. after    7 cycles
 SCF Done:  E(ULC-wPBE) =  -3457.98577428     A.U. after    7 cycles
 SCF Done:  E(ULC-wPBE) =  -3457.98577422     A.U. after    6 cycles
 Optimization completed.
    -- Stationary point found.

                         Standard orientation:
 ---------------------------------------------------------------------
 Center     Atomic      Atomic             Coordinates (Angstroms)
 Number     Number       Type             X           Y           Z
 ---------------------------------------------------------------------
      1          6           0       28.856607    0.903153   -0.222932
      2          6           0       28.287634    0.031237    0.703436
      3          6           0       26.904652   -0.109914    0.730640
      4          6           0       26.138093    0.630868   -0.175337
      5          7           0       26.676782    1.471814   -1.069536
      6          6           0       28.005500    1.595978   -1.082774
      7          6           0       24.647395    0.511802   -0.182756
      8          7           0       24.102077   -0.331801    0.704575
      9          6           0       22.776213   -0.457162    0.713941
     10          6           0       21.909119    0.230159   -0.146333
     11          6           0       22.497354    1.110071   -1.063173
     12          6           0       23.877825    1.255896   -1.082826
     13          6           0       20.441953    0.031109   -0.074767
     14          6           0       19.869641   -1.233974    0.088120
     15          6           0       18.485851   -1.353345    0.149780
     16          6           0       17.697984   -0.202010    0.040057
     17          7           0       18.229409    1.017725   -0.119239
     18          6           0       19.555650    1.115140   -0.167656
     19          6           0       16.204288   -0.280209    0.084572
     20          7           0       15.535918    0.563650   -0.713441
     21          6           0       14.206233    0.519788   -0.688209
     22          6           0       13.448979   -0.339854    0.122163
     23          6           0       14.162803   -1.211660    0.949806
     24          6           0       15.552632   -1.185468    0.929827
     25          6           0       11.967158   -0.315598    0.093020
     26          6           0       11.243095    0.882012    0.047263
     27          6           0        9.855498    0.842531    0.021110
     28          6           0        9.216467   -0.401155    0.045599
     29          7           0        9.892298   -1.558087    0.084739
     30          6           0       11.222716   -1.503309    0.104628
     31          6           0        7.725405   -0.492287    0.029056
     32          7           0        7.049400    0.664410   -0.001692
     33          6           0        5.718601    0.611112   -0.012432
     34          6           0        4.974093   -0.576659    0.011628
     35          6           0        5.698838   -1.774413    0.037552
     36          6           0        7.086421   -1.736379    0.044574
     37          6           0        3.492004   -0.554638    0.004412
     38          6           0        2.739732   -1.442521   -0.774265
     39          6           0        1.353491   -1.377393   -0.742488
     40          6           0        0.743656   -0.416480    0.070545
     41          7           0        1.446184    0.438540    0.826406
     42          6           0        2.775271    0.360625    0.788158
     43          6           0       -0.744702   -0.302838    0.130702
     44          7           0       -1.447397   -1.159658   -0.623482
     45          6           0       -2.776173   -1.081275   -0.584529
     46          6           0       -3.493140   -0.164898    0.197591
     47          6           0       -2.740960    0.723839    0.975473
     48          6           0       -1.354492    0.658695    0.942633
     49          6           0       -4.975236   -0.144712    0.187613
     50          6           0       -5.736689   -1.319745    0.202315
     51          6           0       -7.122637   -1.238301    0.190205
     52          6           0       -7.722686    0.024660    0.167820
     53          7           0       -7.010934    1.160351    0.149883
     54          6           0       -5.682710    1.065265    0.157087
     55          6           0       -9.210280    0.161736    0.163675
     56          7           0       -9.922004   -0.973608    0.183151
     57          6           0      -11.250571   -0.879122    0.176229
     58          6           0      -11.957621    0.331162    0.144608
     59          6           0      -11.195869    1.505929    0.129740
     60          6           0       -9.810143    1.425006    0.141042
     61          6           0      -13.439658    0.355276    0.133326
     62          6           0      -14.173261    1.265357    0.904197
     63          6           0      -15.560304    1.243725    0.855394
     64          6           0      -16.190042    0.303417    0.033399
     65          7           0      -15.505382   -0.572247   -0.715208
     66          6           0      -14.175040   -0.536054   -0.660580
     67          6           0      -17.680416    0.237079   -0.044959
     68          7           0      -18.364415    1.114496    0.702726
     69          6           0      -19.694461    1.078672    0.647658
     70          6           0      -20.430998    0.187268   -0.145141
     71          6           0      -19.698188   -0.723538   -0.915892
     72          6           0      -18.310762   -0.702907   -0.866249
     73          6           0      -21.913024    0.214802   -0.153032
     74          6           0      -22.635987    1.413849   -0.175029
     75          6           0      -24.023761    1.377018   -0.179475
     76          6           0      -24.665052    0.134250   -0.166001
     77          7           0      -23.990325   -1.023545   -0.141132
     78          6           0      -22.659579   -0.971415   -0.132585
     79          6           0      -26.157879    0.047299   -0.179526
     80          7           0      -26.825859    1.209234   -0.207587
     81          6           0      -28.159412    1.158272   -0.220070
     82          6           0      -28.889166   -0.029567   -0.205642
     83          6           0      -28.186232   -1.232538   -0.176329
     84          6           0      -26.796312   -1.197402   -0.162885
     85          1           0       29.939967    1.047355   -0.281931
     86          1           0       28.917087   -0.534141    1.399465
     87          1           0       26.393680   -0.775317    1.431063
     88          1           0       28.414941    2.292531   -1.826881
     89          1           0       22.365282   -1.140710    1.470035
     90          1           0       21.873405    1.664560   -1.773108
     91          1           0       24.386387    1.923757   -1.782503
     92          1           0       20.503957   -2.125909    0.138460
     93          1           0       18.020027   -2.338786    0.248193
     94          1           0       19.954630    2.134116   -0.271918
     95          1           0       13.694139    1.207848   -1.375797
     96          1           0       13.632691   -1.889021    1.628505
     97          1           0       16.127274   -1.840404    1.592071
     98          1           0       11.768007    1.843844    0.051910
     99          1           0        9.244958    1.748413   -0.008238
    100          1           0       11.741775   -2.471873    0.114141
    101          1           0        5.200707    1.578814   -0.061188
    102          1           0        5.173172   -2.735486    0.071207
    103          1           0        7.697023   -2.642317    0.070797
    104          1           0        3.243042   -2.171632   -1.419387
    105          1           0        0.722140   -2.042919   -1.336397
    106          1           0        3.315311    1.062179    1.438714
    107          1           0       -3.316662   -1.784930   -1.232739
    108          1           0       -3.243744    1.452524    1.621212
    109          1           0       -0.723086    1.324673    1.535975
    110          1           0       -5.241939   -2.296619    0.243571
    111          1           0       -7.761211   -2.124968    0.207949
    112          1           0       -5.134231    2.016685    0.119475
    113          1           0      -11.798832   -1.830356    0.216283
    114          1           0      -11.691059    2.482822    0.090100
    115          1           0       -9.171548    2.311659    0.123366
    116          1           0      -13.655293    1.977617    1.556510
    117          1           0      -16.177847    1.927948    1.442530
    118          1           0      -13.649310   -1.253339   -1.305700
    119          1           0      -20.220063    1.798047    1.290816
    120          1           0      -20.216329   -1.434473   -1.569228
    121          1           0      -17.693935   -1.387642   -1.453558
    122          1           0      -22.109499    2.374327   -0.208844
    123          1           0      -24.633951    2.283296   -0.203106
    124          1           0      -22.142640   -1.940190   -0.089759
    125          1           0      -28.676459    2.127122   -0.243052
    126          1           0      -29.983379   -0.006893   -0.217105
    127          1           0      -28.717366   -2.190685   -0.163873
    128          1           0      -26.183953   -2.102347   -0.139518
 ---------------------------------------------------------------------

 Alpha  occ. eigenvalues --   -0.55996  -0.55979  -0.55710  -0.55048  -0.54870
 Alpha  occ. eigenvalues --   -0.54825  -0.54677  -0.54482  -0.54258  -0.54061
 Alpha  occ. eigenvalues --   -0.53971  -0.53919  -0.53887  -0.53708  -0.53620
 Alpha  occ. eigenvalues --   -0.53600  -0.53478  -0.53373  -0.53317  -0.53202
 Alpha  occ. eigenvalues --   -0.53166  -0.53054  -0.52436  -0.51992  -0.51696
 Alpha  occ. eigenvalues --   -0.51312  -0.51138  -0.51104  -0.50903  -0.50850
 Alpha  occ. eigenvalues --   -0.50658  -0.50539  -0.50381  -0.50241  -0.50127
 Alpha  occ. eigenvalues --   -0.49899  -0.49780  -0.49632  -0.49516  -0.49426
 Alpha  occ. eigenvalues --   -0.49383  -0.49312  -0.49060  -0.48933  -0.48748
 Alpha  occ. eigenvalues --   -0.48468  -0.48398  -0.48260  -0.47752  -0.47160
 Alpha  occ. eigenvalues --   -0.46616  -0.46210  -0.45739  -0.45453  -0.45182
 Alpha  occ. eigenvalues --   -0.44841  -0.44695  -0.44429  -0.44393  -0.42727
 Alpha  occ. eigenvalues --   -0.42212  -0.41620  -0.41021  -0.40351  -0.39888
 Alpha  occ. eigenvalues --   -0.38775  -0.38748  -0.38610  -0.38545  -0.38402
 Alpha  occ. eigenvalues --   -0.38300  -0.38260  -0.38131  -0.37872  -0.37849
 Alpha  occ. eigenvalues --   -0.37773  -0.37636  -0.37476  -0.37321  -0.37140
 Alpha  occ. eigenvalues --   -0.36775  -0.36570  -0.36488  -0.36204  -0.36096
 Alpha  occ. eigenvalues --   -0.35873  -0.35300  -0.35022  -0.34833  -0.34713
 Alpha  occ. eigenvalues --   -0.34555  -0.34392  -0.34069  -0.34008  -0.33815
 Alpha  occ. eigenvalues --   -0.33681  -0.32995  -0.31980  -0.31227  -0.30616
 Alpha  occ. eigenvalues --   -0.30054
 Alpha virt. eigenvalues --   -0.01939  -0.01243  -0.00448   0.00370   0.01483
 Alpha virt. eigenvalues --    0.02620   0.03272   0.03415   0.03444   0.03469
 Alpha virt. eigenvalues --    0.03515   0.03847   0.03852   0.04167   0.04334

  Beta  occ. eigenvalues --  -14.16840 -14.16834 -14.16832 -14.16820 -14.16808
  Beta  occ. eigenvalues --  -14.16803 -14.16765 -14.16744 -14.16596 -14.16588
  Beta  occ. eigenvalues --  -14.16292 -14.16285 -14.16277 -14.16247 -10.11126
  Beta  occ. eigenvalues --  -10.11080 -10.11056 -10.11048 -10.11046 -10.11043
  Beta  occ. eigenvalues --  -10.11032 -10.11030 -10.10998 -10.10949 -10.10776
  Beta  occ. eigenvalues --  -10.10774 -10.10709 -10.10708 -10.10702 -10.10681
  Beta  occ. eigenvalues --  -10.10674 -10.10659 -10.10636 -10.10635 -10.10634
  Beta  occ. eigenvalues --  -10.10593 -10.10514 -10.10495 -10.10474 -10.10401
  Beta  occ. eigenvalues --  -10.10137 -10.10130 -10.09330 -10.09307 -10.09305
  Beta  occ. eigenvalues --  -10.09296 -10.09295 -10.09279 -10.09275 -10.09256
  Beta  occ. eigenvalues --  -10.09254 -10.09252 -10.09185 -10.09175 -10.09175
  Beta  occ. eigenvalues --  -10.09174 -10.09150 -10.09148 -10.09145 -10.09128
  Beta  occ. eigenvalues --  -10.09095 -10.09091 -10.09080 -10.09034 -10.08940
  Beta  occ. eigenvalues --  -10.08906 -10.08695 -10.08692 -10.08393 -10.08349
  Beta  occ. eigenvalues --  -10.07756 -10.07754 -10.07725 -10.07724 -10.07707
  Beta  occ. eigenvalues --  -10.07706 -10.07700 -10.07671 -10.07668 -10.07613
  Beta  occ. eigenvalues --  -10.07443 -10.07421 -10.07232 -10.07228  -1.05620
  Beta  occ. eigenvalues --   -1.05543  -1.05452  -1.05367  -1.05312  -1.05070
  Beta  occ. eigenvalues --   -1.05062  -1.03914  -1.03772  -1.03607  -1.03483
  Beta  occ. eigenvalues --   -1.03340  -1.03191  -1.03097  -0.94091  -0.93981
  Beta  occ. eigenvalues --   -0.93843  -0.93679  -0.93553  -0.93367  -0.90504
  Beta  occ. eigenvalues --   -0.90431  -0.90344  -0.90148  -0.89863  -0.89757
  Beta  occ. eigenvalues --   -0.89555  -0.89481  -0.89361  -0.89310  -0.89125
  Beta  occ. eigenvalues --   -0.88896  -0.88731  -0.88490  -0.88194  -0.86616
  Beta  occ. eigenvalues --   -0.85920  -0.85133  -0.84289  -0.83437  -0.82642
  Beta  occ. eigenvalues --   -0.82069  -0.78236  -0.77534  -0.76731  -0.76265
  Beta  occ. eigenvalues --   -0.75976  -0.75684  -0.75479  -0.75183  -0.74864
  Beta  occ. eigenvalues --   -0.74392  -0.74318  -0.73841  -0.73406  -0.73010
  Beta  occ. eigenvalues --   -0.72664  -0.72333  -0.71842  -0.71583  -0.71128
  Beta  occ. eigenvalues --   -0.71052  -0.70617  -0.70564  -0.70103  -0.69813
  Beta  occ. eigenvalues --   -0.69404  -0.69098  -0.68852  -0.68695  -0.64822
  Beta  occ. eigenvalues --   -0.64654  -0.64418  -0.64132  -0.63820  -0.63452
  Beta  occ. eigenvalues --   -0.63154  -0.61753  -0.61701  -0.61355  -0.61140
  Beta  occ. eigenvalues --   -0.60896  -0.60442  -0.60394  -0.59817  -0.59716
  Beta  occ. eigenvalues --   -0.59226  -0.58927  -0.58707  -0.58469  -0.57825
  Beta  occ. eigenvalues --   -0.57693  -0.57620  -0.57372  -0.56833  -0.56376
  Beta  occ. eigenvalues --   -0.55996  -0.55979  -0.55710  -0.55048  -0.54870
  Beta  occ. eigenvalues --   -0.54825  -0.54677  -0.54482  -0.54258  -0.54061
  Beta  occ. eigenvalues --   -0.53971  -0.53919  -0.53887  -0.53708  -0.53620
  Beta  occ. eigenvalues --   -0.53600  -0.53478  -0.53373  -0.53317  -0.53202
  Beta  occ. eigenvalues --   -0.53166  -0.53054  -0.52436  -0.51992  -0.51696
  Beta  occ. eigenvalues --   -0.51312  -0.51138  -0.51104  -0.50903  -0.50850
  Beta  occ. eigenvalues --   -0.50658  -0.50539  -0.50381  -0.50241  -0.50127
  Beta  occ. eigenvalues --   -0.49899  -0.49780  -0.49632  -0.49516  -0.49426
  Beta  occ. eigenvalues --   -0.49383  -0.49312  -0.49060  -0.48933  -0.48748
  Beta  occ. eigenvalues --   -0.48468  -0.48398  -0.48260  -0.47752  -0.47160
  Beta  occ. eigenvalues --   -0.46616  -0.46210  -0.45739  -0.45453  -0.45182
  Beta  occ. eigenvalues --   -0.44841  -0.44695  -0.44429  -0.44393  -0.42727
  Beta  occ. eigenvalues --   -0.42212  -0.41620  -0.41021  -0.40351  -0.39888
  Beta  occ. eigenvalues --   -0.38775  -0.38748  -0.38610  -0.38545  -0.38402
  Beta  occ. eigenvalues --   -0.38300  -0.38260  -0.38131  -0.37872  -0.37849
  Beta  occ. eigenvalues --   -0.37773  -0.37636  -0.37476  -0.37321  -0.37140
  Beta  occ. eigenvalues --   -0.36775  -0.36570  -0.36488  -0.36204  -0.36096
  Beta  occ. eigenvalues --   -0.35873  -0.35300  -0.35022  -0.34833  -0.34713
  Beta  occ. eigenvalues --   -0.34555  -0.34392  -0.34069  -0.34008  -0.33815
  Beta  occ. eigenvalues --   -0.33681  -0.32995  -0.31980  -0.31227  -0.30616
  Beta  occ. eigenvalues --   -0.30054
  Beta virt. eigenvalues --   -0.01939  -0.01243  -0.00448   0.00370   0.01483
  Beta virt. eigenvalues --    0.02620   0.03272   0.03415   0.03444   0.03469
  Beta virt. eigenvalues --    0.03515   0.03847   0.03852   0.04167   0.04334

 Mulliken charges and spin densities:
               1          2
     1  C   -0.041867   0.000000
     2  C    0.069163   0.000000
     3  C    0.023279  -0.000000
     4  C    0.050048   0.000000
     5  N   -0.199249  -0.000000
     6  C    0.087337  -0.000000
     7  C    0.054774  -0.000000
     8  N   -0.196291   0.000000
     9  C    0.091433  -0.000000
    10  C   -0.064727  -0.000000
    11  C    0.069384   0.000000
    12  C    0.039218  -0.000000
    13  C   -0.059838   0.000000
    14  C    0.063347  -0.000000
    15  C    0.004395   0.000000
    16  C    0.062977  -0.000000
    17  N   -0.161765   0.000000
    18  C    0.087292  -0.000000
    19  C    0.063246   0.000000
    20  N   -0.161440   0.000000
    21  C    0.087311  -0.000000
    22  C   -0.060236  -0.000000
    23  C    0.063206   0.000000
    24  C    0.004668  -0.000000
    25  C   -0.063935   0.000000
    26  C    0.069115   0.000000
    27  C    0.039699  -0.000000
    28  C    0.053254   0.000000
    29  N   -0.197191  -0.000000
    30  C    0.092230   0.000000
    31  C    0.053706  -0.000000
    32  N   -0.196426   0.000000
    33  C    0.093129  -0.000000
    34  C   -0.063670   0.000000
    35  C    0.068314  -0.000000
    36  C    0.039337   0.000000
    37  C   -0.063595   0.000000
    38  C    0.068276  -0.000000
    39  C    0.039388  -0.000000
    40  C    0.053593   0.000000
    41  N   -0.196689  -0.000000
    42  C    0.093055  -0.000000
    43  C    0.053372  -0.000000
    44  N   -0.196942   0.000000
    45  C    0.092708  -0.000000
    46  C   -0.063037  -0.000000
    47  C    0.068267  -0.000000
    48  C    0.039656   0.000000
    49  C   -0.063058   0.000000
    50  C    0.068227  -0.000000
    51  C    0.039634   0.000000
    52  C    0.053437  -0.000000
    53  N   -0.196898   0.000000
    54  C    0.092714   0.000000
    55  C    0.053522   0.000000
    56  N   -0.196757   0.000000
    57  C    0.093020  -0.000000
    58  C   -0.063510   0.000000
    59  C    0.068313  -0.000000
    60  C    0.039368  -0.000000
    61  C   -0.063685   0.000000
    62  C    0.068207  -0.000000
    63  C    0.039443   0.000000
    64  C    0.053478  -0.000000
    65  N   -0.196617   0.000000
    66  C    0.092923  -0.000000
    67  C    0.053301   0.000000
    68  N   -0.197114  -0.000000
    69  C    0.092582   0.000000
    70  C   -0.062812   0.000000
    71  C    0.068362   0.000000
    72  C    0.039370   0.000000
    73  C   -0.063843  -0.000000
    74  C    0.068650   0.000000
    75  C    0.039120  -0.000000
    76  C    0.054884   0.000000
    77  N   -0.196080  -0.000000
    78  C    0.091901  -0.000000
    79  C    0.049950  -0.000000
    80  N   -0.199510  -0.000000
    81  C    0.087214  -0.000000
    82  C   -0.041860   0.000000
    83  C    0.069203  -0.000000
    84  C    0.023374  -0.000000
    85  H    0.000516  -0.000000
    86  H    0.004104  -0.000000
    87  H    0.002749  -0.000000
    88  H    0.008046  -0.000000
    89  H    0.002209   0.000000
    90  H   -0.001020  -0.000000
    91  H    0.003478   0.000000
    92  H   -0.004015  -0.000000
    93  H   -0.001972  -0.000000
    94  H    0.008191   0.000000
    95  H    0.008162  -0.000000
    96  H   -0.004031   0.000000
    97  H   -0.001601   0.000000
    98  H   -0.000149  -0.000000
    99  H    0.004345   0.000000
   100  H    0.002852  -0.000000
   101  H    0.006682  -0.000000
   102  H   -0.004483  -0.000000
   103  H    0.002810  -0.000000
   104  H   -0.004189  -0.000000
   105  H    0.003294   0.000000
   106  H    0.006522   0.000000
   107  H    0.004883  -0.000000
   108  H   -0.002680  -0.000000
   109  H    0.003886   0.000000
   110  H   -0.002777  -0.000000
   111  H    0.003837  -0.000000
   112  H    0.004906   0.000000
   113  H    0.006451   0.000000
   114  H   -0.004201   0.000000
   115  H    0.003276   0.000000
   116  H   -0.004397  -0.000000
   117  H    0.003240  -0.000000
   118  H    0.006288  -0.000000
   119  H    0.004771  -0.000000
   120  H   -0.002768  -0.000000
   121  H    0.003537   0.000000
   122  H   -0.003537   0.000000
   123  H    0.002932  -0.000000
   124  H    0.004227   0.000000
   125  H    0.007827   0.000000
   126  H    0.000512   0.000000
   127  H    0.004299   0.000000
   128  H    0.003251   0.000000
 Sum of Mulliken charges =  -0.00000   0.00000

 Dipole moment (field-independent basis, Debye):
    X=              0.1586    Y=             -2.4738    Z=              1.1552  Tot=              2.7348
 Quadrupole moment (field-independent basis, Debye-Ang):
   XX=           -316.7868   YY=           -452.4003   ZZ=           -479.4549
   XY=            -38.4947   XZ=             21.6839   YZ=              0.8911

 Normal termination of Gaussian 16 at Sat Jul 25 16:50:49 2020.
