 Gaussian 16, Revision A.03,
 Gaussian 16:  EM64L-G16RevA.03 25-Dec-2016

 ---------------------------------------------------------------
 #P uLC-wPBE/cc-pVDZ iop(3/107=0265200000, 3/108=0265200000) opt
 ---------------------------------------------------------------

 -------------
 H11 C30 S3 F9
 -------------
 Symbolic Z-matrix:
 Charge =  0 Multiplicity = 1

 SCF Done:  E(ULC-wPBE) =  -3241.01419465     A.U. after   16 cycles
 SCF Done:  E(ULC-wPBE) =  -3241.07075974     A.U. after   14 cycles
 SCF Done:  E(ULC-wPBE) =  -3241.10588081     A.U. after   15 cycles
 SCF Done:  E(ULC-wPBE) =  -3241.10823679     A.U. after   13 cycles
 SCF Done:  E(ULC-wPBE) =  -3241.10879273     A.U. after   13 cycles
 SCF Done:  E(ULC-wPBE) =  -3241.10884488     A.U. after   13 cycles
 SCF Done:  E(ULC-wPBE) =  -3241.10903933     A.U. after   11 cycles
 SCF Done:  E(ULC-wPBE) =  -3241.10906849     A.U. after   11 cycles
 SCF Done:  E(ULC-wPBE) =  -3241.10908482     A.U. after   11 cycles
 SCF Done:  E(ULC-wPBE) =  -3241.10908746     A.U. after   11 cycles
 SCF Done:  E(ULC-wPBE) =  -3241.10908888     A.U. after   10 cycles
 SCF Done:  E(ULC-wPBE) =  -3241.10908955     A.U. after   10 cycles
 SCF Done:  E(ULC-wPBE) =  -3241.10908973     A.U. after    8 cycles
 SCF Done:  E(ULC-wPBE) =  -3241.10908986     A.U. after    7 cycles
 Optimization completed.
    -- Stationary point found.

                         Standard orientation:
 ---------------------------------------------------------------------
 Center     Atomic      Atomic             Coordinates (Angstroms)
 Number     Number       Type             X           Y           Z
 ---------------------------------------------------------------------
      1          6           0       11.493314    0.609297    0.214689
      2          6           0       10.584977    1.334019    0.986517
      3          6           0        9.245984    0.966257    0.960256
      4          9           0        8.367919    1.667670    1.704504
      5          6           0        8.757282   -0.100949    0.193479
      6          6           0        9.710936   -0.786384   -0.573847
      7          9           0        9.295846   -1.799760   -1.353256
      8          6           0       11.061357   -0.457184   -0.572861
      9          6           0        7.338445   -0.488332    0.184749
     10          6           0        6.809483   -1.752087    0.298135
     11          9           0        7.563912   -2.842842    0.493857
     12          6           0        5.395522   -1.824845    0.221791
     13          6           0        4.832583   -0.581860    0.049570
     14         16           0        6.047168    0.653678   -0.023467
     15          6           0        3.401972   -0.244859   -0.063894
     16          6           0        2.505657   -1.174097   -0.612198
     17          6           0        1.161179   -0.849302   -0.706776
     18          9           0        0.320674   -1.758666   -1.237490
     19          6           0        0.628664    0.378603   -0.289032
     20          6           0        1.557617    1.274290    0.260566
     21          9           0        1.113222    2.455986    0.718859
     22          6           0        2.911593    0.992225    0.376880
     23          6           0       -0.796008    0.715464   -0.412817
     24          6           0       -1.348519    1.886110   -0.876833
     25          9           0       -0.612478    2.901975   -1.348955
     26          6           0       -2.765117    1.938005   -0.851168
     27          6           0       -3.306331    0.773662   -0.358506
     28         16           0       -2.068987   -0.362278    0.072356
     29          6           0       -4.732350    0.441405   -0.185959
     30          6           0       -5.659463    1.457488    0.084738
     31          6           0       -7.001535    1.137879    0.235573
     32          9           0       -7.861617    2.129442    0.521726
     33          6           0       -7.499792   -0.168956    0.128276
     34          6           0       -6.536318   -1.153421   -0.129618
     35          9           0       -6.946101   -2.431859   -0.236234
     36          6           0       -5.185492   -0.881558   -0.289137
     37          6           0       -8.930865   -0.469229    0.278211
     38          6           0       -9.990963    0.191870   -0.295976
     39          9           0       -9.835221    1.221167   -1.142129
     40          6           0      -11.274951   -0.306571    0.054342
     41          6           0      -11.169381   -1.367984    0.912238
     42         16           0       -9.534309   -1.754729    1.280428
     43          1           0       12.553997    0.882770    0.224671
     44          1           0       10.892569    2.176628    1.612889
     45          1           0       11.748588   -1.038140   -1.195161
     46          1           0        4.835486   -2.756827    0.329067
     47          1           0        2.841122   -2.141878   -0.995795
     48          1           0        3.562923    1.739436    0.841263
     49          1           0       -3.342058    2.789555   -1.219535
     50          1           0       -5.350958    2.499108    0.212884
     51          1           0       -4.507277   -1.709288   -0.519452
     52          1           0      -12.211285    0.109682   -0.324354
     53          1           0      -11.977347   -1.959531    1.348169
 ---------------------------------------------------------------------

 The electronic state is 1-A.
 Alpha  occ. eigenvalues --  -88.26452 -88.26441 -88.25873 -24.45046 -24.44743
 Alpha  occ. eigenvalues --  -24.44730 -24.44699 -24.44440 -24.44429 -24.44359
 Alpha  occ. eigenvalues --  -24.44311 -24.43873 -10.15426 -10.15365 -10.15144
 Alpha  occ. eigenvalues --  -10.15092 -10.15050 -10.14996 -10.14205 -10.14145
 Alpha  occ. eigenvalues --  -10.13617 -10.10442 -10.10439 -10.09895 -10.09876
 Alpha  occ. eigenvalues --  -10.09821 -10.09687 -10.09234 -10.09227 -10.08985
 Alpha  occ. eigenvalues --  -10.08964 -10.08926 -10.07915 -10.07236 -10.07181
 Alpha  occ. eigenvalues --  -10.07041 -10.07040 -10.06994 -10.06982 -10.06845
 Alpha  occ. eigenvalues --  -10.06791 -10.06433  -7.86918  -7.86907  -7.86346
 Alpha  occ. eigenvalues --   -5.88844  -5.88832  -5.88354  -5.88342  -5.88265
 Alpha  occ. eigenvalues --   -5.87907  -5.87897  -5.87771  -5.87353  -1.29179
 Alpha  occ. eigenvalues --   -1.29036  -1.28880  -1.28858  -1.28770  -1.28739
 Alpha  occ. eigenvalues --   -1.28347  -1.28244  -1.27851  -0.99648  -0.99353
 Alpha  occ. eigenvalues --   -0.98350  -0.97057  -0.96286  -0.95849  -0.90409
 Alpha  occ. eigenvalues --   -0.88904  -0.87388  -0.85194  -0.85002  -0.84520
 Alpha  occ. eigenvalues --   -0.83962  -0.83455  -0.83265  -0.82710  -0.81409
 Alpha  occ. eigenvalues --   -0.79416  -0.75327  -0.73434  -0.72996  -0.72425
 Alpha  occ. eigenvalues --   -0.72121  -0.71676  -0.67804  -0.67731  -0.67627
 Alpha  occ. eigenvalues --   -0.67079  -0.66914  -0.66267  -0.65255  -0.64803
 Alpha  occ. eigenvalues --   -0.63686  -0.63222  -0.62165  -0.61602  -0.61454
 Alpha  occ. eigenvalues --   -0.61214  -0.61005  -0.58844  -0.58664  -0.57879
 Alpha  occ. eigenvalues --   -0.57780  -0.57366  -0.57133  -0.57043  -0.56903
 Alpha  occ. eigenvalues --   -0.56579  -0.55547  -0.55421  -0.55141  -0.55063
 Alpha  occ. eigenvalues --   -0.54838  -0.54646  -0.54116  -0.53955  -0.53846
 Alpha  occ. eigenvalues --   -0.53386  -0.53082  -0.52671  -0.52371  -0.51774
 Alpha  occ. eigenvalues --   -0.51140  -0.50533  -0.49344  -0.49061  -0.48518
 Alpha  occ. eigenvalues --   -0.48354  -0.48256  -0.47180  -0.46924  -0.46649
 Alpha  occ. eigenvalues --   -0.46284  -0.46141  -0.46002  -0.45794  -0.45490
 Alpha  occ. eigenvalues --   -0.45265  -0.45146  -0.45000  -0.44524  -0.44449
 Alpha  occ. eigenvalues --   -0.43624  -0.43453  -0.43180  -0.39322  -0.37866
 Alpha  occ. eigenvalues --   -0.36149  -0.34423  -0.34360  -0.34139  -0.34055
 Alpha  occ. eigenvalues --   -0.33930  -0.33703  -0.32508  -0.30649  -0.28925
 Alpha virt. eigenvalues --   -0.01860   0.00290   0.03315   0.04546   0.04845
 Alpha virt. eigenvalues --    0.05044   0.05421   0.06973   0.08314   0.09519
 Alpha virt. eigenvalues --    0.09773   0.10255   0.12529   0.12636   0.12942

  Beta  occ. eigenvalues --  -88.26452 -88.26441 -88.25873 -24.45046 -24.44743
  Beta  occ. eigenvalues --  -24.44730 -24.44699 -24.44440 -24.44429 -24.44359
  Beta  occ. eigenvalues --  -24.44311 -24.43873 -10.15426 -10.15365 -10.15144
  Beta  occ. eigenvalues --  -10.15092 -10.15050 -10.14996 -10.14205 -10.14145
  Beta  occ. eigenvalues --  -10.13617 -10.10442 -10.10439 -10.09895 -10.09876
  Beta  occ. eigenvalues --  -10.09821 -10.09687 -10.09234 -10.09227 -10.08985
  Beta  occ. eigenvalues --  -10.08964 -10.08926 -10.07915 -10.07236 -10.07181
  Beta  occ. eigenvalues --  -10.07041 -10.07040 -10.06994 -10.06982 -10.06845
  Beta  occ. eigenvalues --  -10.06791 -10.06433  -7.86918  -7.86907  -7.86346
  Beta  occ. eigenvalues --   -5.88844  -5.88832  -5.88354  -5.88342  -5.88265
  Beta  occ. eigenvalues --   -5.87907  -5.87897  -5.87771  -5.87353  -1.29179
  Beta  occ. eigenvalues --   -1.29036  -1.28880  -1.28858  -1.28770  -1.28739
  Beta  occ. eigenvalues --   -1.28347  -1.28244  -1.27851  -0.99648  -0.99353
  Beta  occ. eigenvalues --   -0.98350  -0.97057  -0.96286  -0.95849  -0.90409
  Beta  occ. eigenvalues --   -0.88904  -0.87388  -0.85194  -0.85002  -0.84520
  Beta  occ. eigenvalues --   -0.83962  -0.83455  -0.83265  -0.82710  -0.81409
  Beta  occ. eigenvalues --   -0.79416  -0.75327  -0.73434  -0.72996  -0.72425
  Beta  occ. eigenvalues --   -0.72121  -0.71676  -0.67804  -0.67731  -0.67627
  Beta  occ. eigenvalues --   -0.67079  -0.66914  -0.66267  -0.65255  -0.64803
  Beta  occ. eigenvalues --   -0.63686  -0.63222  -0.62165  -0.61602  -0.61454
  Beta  occ. eigenvalues --   -0.61214  -0.61005  -0.58844  -0.58664  -0.57879
  Beta  occ. eigenvalues --   -0.57780  -0.57366  -0.57133  -0.57043  -0.56903
  Beta  occ. eigenvalues --   -0.56579  -0.55547  -0.55421  -0.55141  -0.55063
  Beta  occ. eigenvalues --   -0.54838  -0.54646  -0.54116  -0.53955  -0.53846
  Beta  occ. eigenvalues --   -0.53386  -0.53082  -0.52671  -0.52371  -0.51774
  Beta  occ. eigenvalues --   -0.51140  -0.50533  -0.49344  -0.49061  -0.48518
  Beta  occ. eigenvalues --   -0.48354  -0.48256  -0.47180  -0.46924  -0.46649
  Beta  occ. eigenvalues --   -0.46284  -0.46141  -0.46002  -0.45794  -0.45490
  Beta  occ. eigenvalues --   -0.45265  -0.45146  -0.45000  -0.44524  -0.44449
  Beta  occ. eigenvalues --   -0.43624  -0.43453  -0.43180  -0.39322  -0.37866
  Beta  occ. eigenvalues --   -0.36149  -0.34423  -0.34360  -0.34139  -0.34055
  Beta  occ. eigenvalues --   -0.33930  -0.33703  -0.32508  -0.30649  -0.28925
  Beta virt. eigenvalues --   -0.01860   0.00290   0.03315   0.04546   0.04845
  Beta virt. eigenvalues --    0.05044   0.05421   0.06973   0.08314   0.09519
  Beta virt. eigenvalues --    0.09773   0.10255   0.12529   0.12636   0.12942

 Mulliken charges and spin densities:
               1          2
     1  C    0.040333  -0.000000
     2  C    0.007700  -0.000000
     3  C    0.113785   0.000000
     4  F   -0.116558  -0.000000
     5  C   -0.065483   0.000000
     6  C    0.113271  -0.000000
     7  F   -0.111656  -0.000000
     8  C    0.006650   0.000000
     9  C   -0.176015  -0.000000
    10  C    0.151246   0.000000
    11  F   -0.110587   0.000000
    12  C    0.026095  -0.000000
    13  C   -0.149032  -0.000000
    14  S    0.203142   0.000000
    15  C    0.078438   0.000000
    16  C   -0.003888  -0.000000
    17  C    0.122943   0.000000
    18  F   -0.113851  -0.000000
    19  C   -0.056780  -0.000000
    20  C    0.118112  -0.000000
    21  F   -0.108091   0.000000
    22  C   -0.003890   0.000000
    23  C   -0.179104   0.000000
    24  C    0.148876  -0.000000
    25  F   -0.109829  -0.000000
    26  C    0.027953  -0.000000
    27  C   -0.147672   0.000000
    28  S    0.201264  -0.000000
    29  C    0.076519  -0.000000
    30  C   -0.006207   0.000000
    31  C    0.123204  -0.000000
    32  F   -0.109256   0.000000
    33  C   -0.049648   0.000000
    34  C    0.120108  -0.000000
    35  F   -0.112968  -0.000000
    36  C   -0.004207   0.000000
    37  C   -0.188793   0.000000
    38  C    0.132483  -0.000000
    39  F   -0.114512   0.000000
    40  C    0.048066   0.000000
    41  C   -0.123790  -0.000000
    42  S    0.193110  -0.000000
    43  H    0.007617  -0.000000
    44  H    0.009025   0.000000
    45  H    0.009549  -0.000000
    46  H    0.006980  -0.000000
    47  H    0.001687   0.000000
    48  H    0.009838  -0.000000
    49  H    0.008132   0.000000
    50  H    0.001283   0.000000
    51  H    0.008499   0.000000
    52  H    0.009493  -0.000000
    53  H    0.036419   0.000000
 Sum of Mulliken charges =  -0.00000  -0.00000

 Dipole moment (field-independent basis, Debye):
    X=              1.5302    Y=             -0.2631    Z=              0.5813  Tot=              1.6580
 Quadrupole moment (field-independent basis, Debye-Ang):
   XX=           -187.6739   YY=           -248.8387   ZZ=           -254.4692
   XY=             14.3289   XZ=             -5.0155   YZ=             -1.1159

 Normal termination of Gaussian 16 at Sat Jul 25 08:24:13 2020.
