 Gaussian 16, Revision A.03,
 Gaussian 16:  EM64L-G16RevA.03 25-Dec-2016

 ---------------------------------------------------------------
 #P uLC-wPBE/cc-pVDZ iop(3/107=0115600000, 3/108=0115600000) opt
 ---------------------------------------------------------------

 ---------------
 H9 C10 S1 N1 O1
 ---------------
 Symbolic Z-matrix:
 Charge =  0 Multiplicity = 1

 SCF Done:  E(ULC-wPBE) =  -913.958137116     A.U. after   16 cycles
 SCF Done:  E(ULC-wPBE) =  -913.988952179     A.U. after   14 cycles
 SCF Done:  E(ULC-wPBE) =  -913.998091923     A.U. after   14 cycles
 SCF Done:  E(ULC-wPBE) =  -913.999757967     A.U. after   13 cycles
 SCF Done:  E(ULC-wPBE) =  -914.001231123     A.U. after   14 cycles
 SCF Done:  E(ULC-wPBE) =  -914.001684666     A.U. after   14 cycles
 SCF Done:  E(ULC-wPBE) =  -914.001873257     A.U. after   12 cycles
 SCF Done:  E(ULC-wPBE) =  -914.001917155     A.U. after   11 cycles
 SCF Done:  E(ULC-wPBE) =  -914.001920819     A.U. after    9 cycles
 SCF Done:  E(ULC-wPBE) =  -914.001921740     A.U. after    8 cycles
 SCF Done:  E(ULC-wPBE) =  -914.001921973     A.U. after    8 cycles
 Optimization completed.
    -- Stationary point found.

                         Standard orientation:
 ---------------------------------------------------------------------
 Center     Atomic      Atomic             Coordinates (Angstroms)
 Number     Number       Type             X           Y           Z
 ---------------------------------------------------------------------
      1          6           0        2.856054   -1.604205    0.000141
      2          6           0        1.669474   -2.343663   -0.000270
      3          7           0        0.454178   -1.776336   -0.000245
      4          6           0        0.345081   -0.430224    0.000215
      5          6           0        1.505454    0.403278    0.000631
      6          8           0        1.305862    1.755056    0.001232
      7          6           0        2.458299    2.594551   -0.001562
      8          6           0        2.769820   -0.205068    0.000598
      9          6           0       -1.028674    0.084003    0.000201
     10          6           0       -1.552183    1.371681    0.000551
     11          6           0       -2.977246    1.396075    0.000267
     12          6           0       -3.527707    0.130208   -0.000394
     13         16           0       -2.318859   -1.110773   -0.000301
     14          1           0        3.834044   -2.104839    0.000086
     15          1           0        1.688038   -3.445305   -0.000745
     16          1           0        3.080890    2.433059   -0.908227
     17          1           0        3.083590    2.435638    0.903736
     18          1           0        2.075963    3.630599   -0.002314
     19          1           0        3.683776    0.401895    0.000942
     20          1           0       -0.918932    2.262955    0.001159
     21          1           0       -3.573635    2.317199    0.000390
     22          1           0       -4.588358   -0.144757   -0.000633
 ---------------------------------------------------------------------

 The electronic state is 1-A.
 Alpha  occ. eigenvalues --  -88.15250 -18.88135 -14.06032 -10.03474 -10.03156
 Alpha  occ. eigenvalues --  -10.00979  -9.99125  -9.98711  -9.98380  -9.98139
 Alpha  occ. eigenvalues --   -9.97593  -9.96094  -9.96038  -7.75461  -5.77534
 Alpha  occ. eigenvalues --   -5.77081  -5.76738  -1.05951  -0.92580  -0.85688
 Alpha  occ. eigenvalues --   -0.79485  -0.77673  -0.72513  -0.71808  -0.70017
 Alpha  occ. eigenvalues --   -0.63781  -0.62041  -0.56832  -0.55832  -0.54180
 Alpha  occ. eigenvalues --   -0.51792  -0.51209  -0.49245  -0.48333  -0.45585
 Alpha  occ. eigenvalues --   -0.44371  -0.43282  -0.41922  -0.40613  -0.40229
 Alpha  occ. eigenvalues --   -0.39036  -0.38667  -0.36567  -0.36154  -0.35208
 Alpha  occ. eigenvalues --   -0.32320  -0.28332  -0.27404  -0.27374  -0.23892
 Alpha virt. eigenvalues --   -0.01817   0.01774   0.05132   0.08056   0.08736
 Alpha virt. eigenvalues --    0.10007   0.10196   0.12123   0.12967   0.13473
 Alpha virt. eigenvalues --    0.14433   0.15441   0.15998   0.17608   0.17905

  Beta  occ. eigenvalues --  -88.15250 -18.88135 -14.06032 -10.03474 -10.03156
  Beta  occ. eigenvalues --  -10.00979  -9.99125  -9.98711  -9.98380  -9.98139
  Beta  occ. eigenvalues --   -9.97593  -9.96094  -9.96038  -7.75461  -5.77534
  Beta  occ. eigenvalues --   -5.77081  -5.76738  -1.05951  -0.92580  -0.85688
  Beta  occ. eigenvalues --   -0.79485  -0.77673  -0.72513  -0.71808  -0.70017
  Beta  occ. eigenvalues --   -0.63781  -0.62041  -0.56832  -0.55832  -0.54180
  Beta  occ. eigenvalues --   -0.51792  -0.51209  -0.49245  -0.48333  -0.45585
  Beta  occ. eigenvalues --   -0.44371  -0.43282  -0.41922  -0.40613  -0.40229
  Beta  occ. eigenvalues --   -0.39036  -0.38667  -0.36567  -0.36154  -0.35208
  Beta  occ. eigenvalues --   -0.32320  -0.28332  -0.27404  -0.27374  -0.23892
  Beta virt. eigenvalues --   -0.01817   0.01774   0.05132   0.08056   0.08736
  Beta virt. eigenvalues --    0.10007   0.10196   0.12123   0.12967   0.13473
  Beta virt. eigenvalues --    0.14433   0.15441   0.15998   0.17608   0.17905

 Mulliken charges and spin densities:
               1          2
     1  C   -0.024192  -0.000000
     2  C    0.086375   0.000000
     3  N   -0.215020   0.000000
     4  C    0.134187   0.000000
     5  C    0.104470  -0.000000
     6  O   -0.239273   0.000000
     7  C    0.062549   0.000000
     8  C    0.025742   0.000000
     9  C   -0.129923   0.000000
    10  C   -0.008174  -0.000000
    11  C    0.077217   0.000000
    12  C   -0.129737   0.000000
    13  S    0.175036   0.000000
    14  H   -0.017918   0.000000
    15  H   -0.003060  -0.000000
    16  H    0.048233   0.000000
    17  H    0.048240  -0.000000
    18  H    0.052482  -0.000000
    19  H   -0.012570   0.000000
    20  H   -0.025672   0.000000
    21  H   -0.021913  -0.000000
    22  H    0.012924  -0.000000
 Sum of Mulliken charges =  -0.00000  -0.00000

 Dipole moment (field-independent basis, Debye):
    X=              2.7998    Y=              2.3538    Z=             -0.0023  Tot=              3.6578
 Quadrupole moment (field-independent basis, Debye-Ang):
   XX=            -66.4792   YY=            -74.6054   ZZ=            -86.1662
   XY=              1.8875   XZ=             -0.0040   YZ=             -0.0050

 Normal termination of Gaussian 16 at Thu Jul 23 23:54:45 2020.
