 Gaussian 16, Revision A.03,
 Gaussian 16:  EM64L-G16RevA.03 25-Dec-2016

 ---------------------------------------------------------------
 #P uLC-wPBE/cc-pVDZ iop(3/107=0276700000, 3/108=0276700000) opt
 ---------------------------------------------------------------

 --------------
 H30 C56 S7 N14
 --------------
 Symbolic Z-matrix:
 Charge =  0 Multiplicity = 1

 SCF Done:  E(ULC-wPBE) =  -5702.66366019     A.U. after   16 cycles
 SCF Done:  E(ULC-wPBE) =  -5702.75753590     A.U. after   14 cycles
 SCF Done:  E(ULC-wPBE) =  -5702.84665688     A.U. after   14 cycles
 SCF Done:  E(ULC-wPBE) =  -5702.86955723     A.U. after   15 cycles
 SCF Done:  E(ULC-wPBE) =  -5702.87412386     A.U. after   14 cycles
 SCF Done:  E(ULC-wPBE) =  -5702.87469218     A.U. after   13 cycles
 SCF Done:  E(ULC-wPBE) =  -5702.87548033     A.U. after   13 cycles
 SCF Done:  E(ULC-wPBE) =  -5702.87578893     A.U. after   13 cycles
 SCF Done:  E(ULC-wPBE) =  -5702.87593258     A.U. after   13 cycles
 SCF Done:  E(ULC-wPBE) =  -5702.87603605     A.U. after   12 cycles
 SCF Done:  E(ULC-wPBE) =  -5702.87607700     A.U. after   11 cycles
 SCF Done:  E(ULC-wPBE) =  -5702.87608068     A.U. after   11 cycles
 SCF Done:  E(ULC-wPBE) =  -5702.87608169     A.U. after    8 cycles
 SCF Done:  E(ULC-wPBE) =  -5702.87608217     A.U. after    7 cycles
 SCF Done:  E(ULC-wPBE) =  -5702.87608233     A.U. after    7 cycles
 SCF Done:  E(ULC-wPBE) =  -5702.87608262     A.U. after    7 cycles
 SCF Done:  E(ULC-wPBE) =  -5702.87608282     A.U. after    8 cycles
 SCF Done:  E(ULC-wPBE) =  -5702.87608289     A.U. after    8 cycles
 SCF Done:  E(ULC-wPBE) =  -5702.87608291     A.U. after    8 cycles
 SCF Done:  E(ULC-wPBE) =  -5702.87608293     A.U. after    7 cycles
 Optimization completed on the basis of negligible forces.
    -- Stationary point found.

                         Standard orientation:
 ---------------------------------------------------------------------
 Center     Atomic      Atomic             Coordinates (Angstroms)
 Number     Number       Type             X           Y           Z
 ---------------------------------------------------------------------
      1          6           0       25.663333   -4.139420   -2.143442
      2          6           0       24.349537   -4.480806   -2.454672
      3          6           0       23.322136   -3.645985   -2.023417
      4          6           0       23.650532   -2.500179   -1.286535
      5          7           0       24.911939   -2.162200   -0.982622
      6          6           0       25.883041   -2.970788   -1.410856
      7          6           0       22.597076   -1.573214   -0.797258
      8          7           0       22.816366   -0.339232   -0.431334
      9          6           0       21.656534    0.258737   -0.027391
     10          6           0       20.514409   -0.506851   -0.069072
     11         16           0       20.933138   -2.084624   -0.650327
     12          6           0       19.143260   -0.126678    0.302217
     13          6           0       18.897212    0.823476    1.305041
     14          6           0       17.588747    1.172783    1.610235
     15          6           0       16.552826    0.546371    0.909102
     16          7           0       16.762513   -0.369274   -0.047058
     17          6           0       18.023381   -0.684404   -0.336472
     18          6           0       15.144533    0.869968    1.200985
     19          7           0       14.753532    1.736265    2.100057
     20          6           0       13.388895    1.807409    2.127726
     21          6           0       12.715320    0.991501    1.246767
     22         16           0       13.868413    0.078301    0.328216
     23          6           0       11.262124    0.866613    1.058426
     24          6           0       10.367987    1.062878    2.118376
     25          6           0        9.002487    0.955152    1.886458
     26          6           0        8.555153    0.643890    0.595709
     27          7           0        9.396140    0.443422   -0.429221
     28          6           0       10.699859    0.555941   -0.192086
     29          6           0        7.109809    0.506908    0.288030
     30          7           0        6.639740   -0.054430   -0.793086
     31          6           0        5.274109   -0.028978   -0.797870
     32          6           0        4.659927    0.560102    0.283080
     33         16           0        5.884901    1.121513    1.372264
     34          6           0        3.222418    0.730530    0.542288
     35          6           0        2.677360    0.695703    1.834145
     36          6           0        1.307868    0.847835    2.004144
     37          6           0        0.513709    1.023520    0.866134
     38          7           0        1.011896    1.066167   -0.377754
     39          6           0        2.328565    0.931060   -0.523411
     40          6           0       -0.947442    1.177215    0.986643
     41          7           0       -1.603890    1.163810    2.117874
     42          6           0       -2.942135    1.330134    1.892778
     43          6           0       -3.327796    1.471605    0.578750
     44         16           0       -1.923048    1.389719   -0.434866
     45          6           0       -4.685027    1.665774    0.045544
     46          6           0       -4.942642    2.430347   -1.101870
     47          6           0       -6.250239    2.586044   -1.541941
     48          6           0       -7.273721    1.974037   -0.810882
     49          7           0       -7.052144    1.233045    0.284186
     50          6           0       -5.791634    1.083194    0.686421
     51          6           0       -8.681469    2.117611   -1.224146
     52          7           0       -9.083268    2.802388   -2.263761
     53          6           0      -10.444246    2.741018   -2.375308
     54          6           0      -11.104459    2.005662   -1.416804
     55         16           0       -9.942900    1.353017   -0.306627
     56          6           0      -12.550978    1.767302   -1.294786
     57          6           0      -13.486704    2.721331   -1.722778
     58          6           0      -14.843092    2.447731   -1.611375
     59          6           0      -15.230545    1.223355   -1.056283
     60          7           0      -14.355990    0.299922   -0.633021
     61          6           0      -13.058522    0.572510   -0.758064
     62          6           0      -16.657523    0.885885   -0.904885
     63          7           0      -17.645628    1.666953   -1.257519
     64          6           0      -18.844735    1.067674   -0.987967
     65          6           0      -18.788076   -0.187257   -0.424794
     66         16           0      -17.126617   -0.641300   -0.222452
     67          6           0      -19.906156   -1.059194   -0.032148
     68          6           0      -19.835690   -1.928799    1.066216
     69          6           0      -20.934516   -2.712939    1.390239
     70          6           0      -22.087252   -2.599048    0.605714
     71          7           0      -22.176122   -1.780453   -0.452171
     72          6           0      -21.109162   -1.044163   -0.757594
     73          6           0      -23.286865   -3.399823    0.915214
     74          7           0      -23.374108   -4.245422    1.909008
     75          6           0      -24.614550   -4.829396    1.928629
     76          6           0      -25.475649   -4.425298    0.943760
     77         16           0      -24.715179   -3.258759   -0.065952
     78          1           0       26.506051   -4.761847   -2.461937
     79          1           0       24.124207   -5.383587   -3.033404
     80          1           0       22.279165   -3.875513   -2.268680
     81          1           0       26.906000   -2.666436   -1.147989
     82          1           0       21.680418    1.308491    0.281919
     83          1           0       19.731959    1.273061    1.854053
     84          1           0       17.344185    1.906346    2.384025
     85          1           0       18.161245   -1.425391   -1.136750
     86          1           0       12.905530    2.509995    2.813762
     87          1           0       10.741560    1.276026    3.125874
     88          1           0        8.293688    1.088563    2.711099
     89          1           0       11.356733    0.399649   -1.060382
     90          1           0        4.736430   -0.491985   -1.631239
     91          1           0        3.327130    0.536435    2.702790
     92          1           0        0.833596    0.825404    2.989611
     93          1           0        2.709450    0.998740   -1.551396
     94          1           0       -3.626488    1.368125    2.745888
     95          1           0       -4.117969    2.912157   -1.640247
     96          1           0       -6.503548    3.174317   -2.428703
     97          1           0       -5.640351    0.447297    1.569188
     98          1           0      -10.933815    3.245795   -3.213949
     99          1           0      -13.148088    3.682144   -2.126103
    100          1           0      -15.612031    3.158082   -1.928911
    101          1           0      -12.368146   -0.212259   -0.417548
    102          1           0      -19.772005    1.607688   -1.202662
    103          1           0      -18.923160   -1.979428    1.671964
    104          1           0      -20.931531   -3.404546    2.237735
    105          1           0      -21.203510   -0.405596   -1.646471
    106          1           0      -24.848697   -5.565118    2.703735
    107          1           0      -26.502070   -4.752725    0.767587
 ---------------------------------------------------------------------

 Alpha  occ. eigenvalues --  -10.10235 -10.10189 -10.10005 -10.09896 -10.09836
 Alpha  occ. eigenvalues --  -10.09766 -10.09754 -10.09617 -10.09588 -10.09583
 Alpha  occ. eigenvalues --  -10.09549 -10.09426 -10.09418 -10.09391 -10.09312
 Alpha  occ. eigenvalues --  -10.09249 -10.09224 -10.09160 -10.09139 -10.09007
 Alpha  occ. eigenvalues --  -10.08779 -10.08689 -10.08655 -10.08589 -10.08489
 Alpha  occ. eigenvalues --  -10.08181 -10.08072 -10.08054 -10.07967 -10.07823
 Alpha  occ. eigenvalues --  -10.07636 -10.07406  -7.88021  -7.87780  -7.87623
 Alpha  occ. eigenvalues --   -7.87581  -7.87466  -7.87251  -7.86636  -5.89869
 Alpha  occ. eigenvalues --   -5.89629  -5.89475  -5.89435  -5.89407  -5.89318
 Alpha  occ. eigenvalues --   -5.89165  -5.89103  -5.89047  -5.89004  -5.88961
 Alpha  occ. eigenvalues --   -5.88845  -5.88808  -5.88667  -5.88632  -5.88627
 Alpha  occ. eigenvalues --   -5.88510  -5.88478  -5.88296  -5.88007  -5.87700
 Alpha  occ. eigenvalues --   -1.06632  -1.06570  -1.06435  -1.06382  -1.06192
 Alpha  occ. eigenvalues --   -1.06145  -1.05527  -1.04464  -1.04343  -1.04200
 Alpha  occ. eigenvalues --   -1.03976  -1.03857  -1.03482  -1.03297  -0.93860
 Alpha  occ. eigenvalues --   -0.93555  -0.93522  -0.93351  -0.93283  -0.93080
 Alpha  occ. eigenvalues --   -0.90453  -0.90308  -0.89884  -0.89764  -0.89663
 Alpha  occ. eigenvalues --   -0.89409  -0.89282  -0.89025  -0.88909  -0.88677
 Alpha  occ. eigenvalues --   -0.88551  -0.88419  -0.88045  -0.87663  -0.87399
 Alpha  occ. eigenvalues --   -0.85095  -0.84328  -0.83678  -0.82848  -0.82000
 Alpha  occ. eigenvalues --   -0.81324  -0.80752  -0.77167  -0.76305  -0.75867
 Alpha  occ. eigenvalues --   -0.75563  -0.75196  -0.74727  -0.74585  -0.73933
 Alpha  occ. eigenvalues --   -0.73792  -0.73535  -0.73099  -0.73057  -0.72948
 Alpha  occ. eigenvalues --   -0.72636  -0.68480  -0.68038  -0.67982  -0.67691
 Alpha  occ. eigenvalues --   -0.67465  -0.67374  -0.67158  -0.66804  -0.66568
 Alpha  occ. eigenvalues --   -0.66268  -0.66130  -0.66067  -0.65893  -0.65673
 Alpha  occ. eigenvalues --   -0.63154  -0.62836  -0.62470  -0.62154  -0.61669
 Alpha  occ. eigenvalues --   -0.61031  -0.60170  -0.59988  -0.59782  -0.59437
 Alpha  occ. eigenvalues --   -0.59338  -0.59079  -0.59030  -0.58824  -0.58178
 Alpha  occ. eigenvalues --   -0.57423  -0.56911  -0.56311  -0.55938  -0.55775
 Alpha  occ. eigenvalues --   -0.55575  -0.55179  -0.55109  -0.55041  -0.54834
 Alpha  occ. eigenvalues --   -0.54779  -0.54609  -0.54480  -0.54274  -0.54227
 Alpha  occ. eigenvalues --   -0.53999  -0.53903  -0.53683  -0.53474  -0.53429
 Alpha  occ. eigenvalues --   -0.52108  -0.52050  -0.51950  -0.51754  -0.51698
 Alpha  occ. eigenvalues --   -0.51601  -0.51446  -0.51366  -0.51236  -0.50900
 Alpha  occ. eigenvalues --   -0.50799  -0.50457  -0.50183  -0.50085  -0.49978
 Alpha  occ. eigenvalues --   -0.49814  -0.49707  -0.49681  -0.49568  -0.49486
 Alpha  occ. eigenvalues --   -0.49392  -0.48492  -0.48368  -0.47837  -0.47539
 Alpha  occ. eigenvalues --   -0.47444  -0.46770  -0.46571  -0.46344  -0.45970
 Alpha  occ. eigenvalues --   -0.45836  -0.45629  -0.45176  -0.45149  -0.45066
 Alpha  occ. eigenvalues --   -0.44743  -0.43179  -0.42683  -0.42074  -0.41358
 Alpha  occ. eigenvalues --   -0.40631  -0.40284  -0.39093  -0.38950  -0.38931
 Alpha  occ. eigenvalues --   -0.38716  -0.38517  -0.38441  -0.38236  -0.37736
 Alpha  occ. eigenvalues --   -0.37580  -0.37538  -0.37465  -0.37427  -0.37309
 Alpha  occ. eigenvalues --   -0.37297  -0.37238  -0.37032  -0.36925  -0.36865
 Alpha  occ. eigenvalues --   -0.36550  -0.36511  -0.36449  -0.36306  -0.35975
 Alpha  occ. eigenvalues --   -0.35763  -0.35726  -0.35594  -0.35143  -0.35078
 Alpha  occ. eigenvalues --   -0.34579  -0.34380  -0.33500  -0.32465  -0.31367
 Alpha  occ. eigenvalues --   -0.30295  -0.29497  -0.28980
 Alpha virt. eigenvalues --   -0.03589  -0.02912  -0.02067  -0.00972   0.00107
 Alpha virt. eigenvalues --    0.01159   0.01778   0.02726   0.02952   0.03017
 Alpha virt. eigenvalues --    0.03061   0.03224   0.03528   0.03581   0.04910

  Beta  occ. eigenvalues --  -88.27448 -88.27211 -88.27113 -88.27076 -88.26959
  Beta  occ. eigenvalues --  -88.26741 -88.26120 -14.17199 -14.17111 -14.17004
  Beta  occ. eigenvalues --  -14.16848 -14.16621 -14.16596 -14.16471 -14.16443
  Beta  occ. eigenvalues --  -14.16410 -14.16262 -14.16236 -14.16010 -14.15843
  Beta  occ. eigenvalues --  -14.15598 -10.13131 -10.12887 -10.12858 -10.12846
  Beta  occ. eigenvalues --  -10.12719 -10.12515 -10.11855 -10.11830 -10.11776
  Beta  occ. eigenvalues --  -10.11668 -10.11573 -10.11438 -10.11420 -10.11024
  Beta  occ. eigenvalues --  -10.10948 -10.10880 -10.10796 -10.10739 -10.10683
  Beta  occ. eigenvalues --  -10.10614 -10.10606 -10.10532 -10.10478 -10.10467
  Beta  occ. eigenvalues --  -10.10235 -10.10189 -10.10005 -10.09896 -10.09836
  Beta  occ. eigenvalues --  -10.09766 -10.09754 -10.09617 -10.09588 -10.09583
  Beta  occ. eigenvalues --  -10.09549 -10.09426 -10.09418 -10.09391 -10.09312
  Beta  occ. eigenvalues --  -10.09249 -10.09224 -10.09160 -10.09139 -10.09007
  Beta  occ. eigenvalues --  -10.08779 -10.08689 -10.08655 -10.08589 -10.08489
  Beta  occ. eigenvalues --  -10.08181 -10.08072 -10.08054 -10.07967 -10.07823
  Beta  occ. eigenvalues --  -10.07636 -10.07406  -7.88021  -7.87780  -7.87623
  Beta  occ. eigenvalues --   -7.87581  -7.87466  -7.87251  -7.86636  -5.89869
  Beta  occ. eigenvalues --   -5.89629  -5.89475  -5.89435  -5.89407  -5.89318
  Beta  occ. eigenvalues --   -5.89165  -5.89103  -5.89047  -5.89004  -5.88961
  Beta  occ. eigenvalues --   -5.88845  -5.88808  -5.88667  -5.88632  -5.88627
  Beta  occ. eigenvalues --   -5.88510  -5.88478  -5.88296  -5.88007  -5.87700
  Beta  occ. eigenvalues --   -1.06632  -1.06570  -1.06435  -1.06382  -1.06192
  Beta  occ. eigenvalues --   -1.06145  -1.05527  -1.04464  -1.04343  -1.04200
  Beta  occ. eigenvalues --   -1.03976  -1.03857  -1.03482  -1.03297  -0.93860
  Beta  occ. eigenvalues --   -0.93555  -0.93522  -0.93351  -0.93283  -0.93080
  Beta  occ. eigenvalues --   -0.90453  -0.90308  -0.89884  -0.89764  -0.89663
  Beta  occ. eigenvalues --   -0.89409  -0.89282  -0.89025  -0.88909  -0.88677
  Beta  occ. eigenvalues --   -0.88551  -0.88419  -0.88045  -0.87663  -0.87399
  Beta  occ. eigenvalues --   -0.85095  -0.84328  -0.83678  -0.82848  -0.82000
  Beta  occ. eigenvalues --   -0.81324  -0.80752  -0.77167  -0.76305  -0.75867
  Beta  occ. eigenvalues --   -0.75563  -0.75196  -0.74727  -0.74585  -0.73933
  Beta  occ. eigenvalues --   -0.73792  -0.73535  -0.73099  -0.73057  -0.72948
  Beta  occ. eigenvalues --   -0.72636  -0.68480  -0.68038  -0.67982  -0.67691
  Beta  occ. eigenvalues --   -0.67465  -0.67374  -0.67158  -0.66804  -0.66568
  Beta  occ. eigenvalues --   -0.66268  -0.66130  -0.66067  -0.65893  -0.65673
  Beta  occ. eigenvalues --   -0.63154  -0.62836  -0.62470  -0.62154  -0.61669
  Beta  occ. eigenvalues --   -0.61031  -0.60170  -0.59988  -0.59782  -0.59437
  Beta  occ. eigenvalues --   -0.59338  -0.59079  -0.59030  -0.58824  -0.58178
  Beta  occ. eigenvalues --   -0.57423  -0.56911  -0.56311  -0.55938  -0.55775
  Beta  occ. eigenvalues --   -0.55575  -0.55179  -0.55109  -0.55041  -0.54834
  Beta  occ. eigenvalues --   -0.54779  -0.54609  -0.54480  -0.54274  -0.54227
  Beta  occ. eigenvalues --   -0.53999  -0.53903  -0.53683  -0.53474  -0.53429
  Beta  occ. eigenvalues --   -0.52108  -0.52050  -0.51950  -0.51754  -0.51698
  Beta  occ. eigenvalues --   -0.51601  -0.51446  -0.51366  -0.51236  -0.50900
  Beta  occ. eigenvalues --   -0.50799  -0.50457  -0.50183  -0.50085  -0.49978
  Beta  occ. eigenvalues --   -0.49814  -0.49707  -0.49681  -0.49568  -0.49486
  Beta  occ. eigenvalues --   -0.49392  -0.48492  -0.48368  -0.47837  -0.47539
  Beta  occ. eigenvalues --   -0.47444  -0.46770  -0.46571  -0.46344  -0.45970
  Beta  occ. eigenvalues --   -0.45836  -0.45629  -0.45176  -0.45149  -0.45066
  Beta  occ. eigenvalues --   -0.44743  -0.43179  -0.42683  -0.42074  -0.41358
  Beta  occ. eigenvalues --   -0.40631  -0.40284  -0.39093  -0.38950  -0.38931
  Beta  occ. eigenvalues --   -0.38716  -0.38517  -0.38441  -0.38236  -0.37736
  Beta  occ. eigenvalues --   -0.37580  -0.37538  -0.37465  -0.37427  -0.37309
  Beta  occ. eigenvalues --   -0.37297  -0.37238  -0.37032  -0.36925  -0.36865
  Beta  occ. eigenvalues --   -0.36550  -0.36511  -0.36449  -0.36306  -0.35975
  Beta  occ. eigenvalues --   -0.35763  -0.35726  -0.35594  -0.35143  -0.35078
  Beta  occ. eigenvalues --   -0.34579  -0.34380  -0.33500  -0.32465  -0.31367
  Beta  occ. eigenvalues --   -0.30295  -0.29497  -0.28980
  Beta virt. eigenvalues --   -0.03589  -0.02912  -0.02067  -0.00972   0.00107
  Beta virt. eigenvalues --    0.01159   0.01778   0.02726   0.02952   0.03017
  Beta virt. eigenvalues --    0.03061   0.03224   0.03528   0.03581   0.04910

 Mulliken charges and spin densities:
               1          2
     1  C   -0.033696   0.000000
     2  C    0.066524  -0.000000
     3  C   -0.013587  -0.000000
     4  C    0.072352   0.000000
     5  N   -0.163638  -0.000000
     6  C    0.087051  -0.000000
     7  C   -0.008735  -0.000000
     8  N   -0.141866  -0.000000
     9  C    0.118898   0.000000
    10  C   -0.210719   0.000000
    11  S    0.148336   0.000000
    12  C   -0.019527  -0.000000
    13  C    0.066972   0.000000
    14  C    0.045049  -0.000000
    15  C    0.079539  -0.000000
    16  N   -0.204689   0.000000
    17  C    0.096551  -0.000000
    18  C   -0.013518   0.000000
    19  N   -0.179962  -0.000000
    20  C    0.120037  -0.000000
    21  C   -0.225454   0.000000
    22  S    0.207924  -0.000000
    23  C   -0.015654  -0.000000
    24  C    0.062006  -0.000000
    25  C    0.003376   0.000000
    26  C    0.079785  -0.000000
    27  N   -0.159667   0.000000
    28  C    0.089863   0.000000
    29  C   -0.013206   0.000000
    30  N   -0.141907   0.000000
    31  C    0.121866  -0.000000
    32  C   -0.209160  -0.000000
    33  S    0.144927  -0.000000
    34  C   -0.026558   0.000000
    35  C    0.070280  -0.000000
    36  C    0.044503   0.000000
    37  C    0.079033   0.000000
    38  N   -0.204719  -0.000000
    39  C    0.098574  -0.000000
    40  C   -0.012466   0.000000
    41  N   -0.179891   0.000000
    42  C    0.121790  -0.000000
    43  C   -0.224296   0.000000
    44  S    0.202345  -0.000000
    45  C   -0.026971   0.000000
    46  C    0.070216  -0.000000
    47  C    0.044387   0.000000
    48  C    0.078685   0.000000
    49  N   -0.204946   0.000000
    50  C    0.097482  -0.000000
    51  C   -0.012879  -0.000000
    52  N   -0.179633  -0.000000
    53  C    0.120068   0.000000
    54  C   -0.225097   0.000000
    55  S    0.204632   0.000000
    56  C   -0.021701  -0.000000
    57  C    0.066497   0.000000
    58  C    0.044779   0.000000
    59  C    0.079422  -0.000000
    60  N   -0.204839   0.000000
    61  C    0.096715   0.000000
    62  C   -0.013601   0.000000
    63  N   -0.180233   0.000000
    64  C    0.121027  -0.000000
    65  C   -0.223431   0.000000
    66  S    0.201271   0.000000
    67  C   -0.027811  -0.000000
    68  C    0.069452   0.000000
    69  C    0.042783  -0.000000
    70  C    0.084644  -0.000000
    71  N   -0.203513   0.000000
    72  C    0.095405   0.000000
    73  C   -0.030485  -0.000000
    74  N   -0.185098   0.000000
    75  C    0.114707   0.000000
    76  C   -0.177515  -0.000000
    77  S    0.198140   0.000000
    78  H    0.003180   0.000000
    79  H    0.005407  -0.000000
    80  H    0.007235  -0.000000
    81  H    0.013322   0.000000
    82  H    0.011103   0.000000
    83  H    0.000365  -0.000000
    84  H    0.008882   0.000000
    85  H    0.012112   0.000000
    86  H    0.008247  -0.000000
    87  H   -0.003458  -0.000000
    88  H    0.007048   0.000000
    89  H    0.016172  -0.000000
    90  H    0.014269  -0.000000
    91  H    0.001200   0.000000
    92  H    0.009278   0.000000
    93  H    0.011906   0.000000
    94  H    0.011709  -0.000000
    95  H    0.004243  -0.000000
    96  H    0.009069   0.000000
    97  H    0.009838  -0.000000
    98  H    0.009228   0.000000
    99  H   -0.001765  -0.000000
   100  H    0.008621  -0.000000
   101  H    0.014534  -0.000000
   102  H    0.010879  -0.000000
   103  H    0.003054   0.000000
   104  H    0.008020   0.000000
   105  H    0.008550  -0.000000
   106  H    0.007086   0.000000
   107  H    0.033437   0.000000
 Sum of Mulliken charges =  -0.00000   0.00000

 Dipole moment (field-independent basis, Debye):
    X=              3.8352    Y=             -0.7082    Z=              1.5486  Tot=              4.1963
 Quadrupole moment (field-independent basis, Debye-Ang):
   XX=           -441.5409   YY=           -459.6250   ZZ=           -467.3269
   XY=            -52.2201   XZ=             -4.2838   YZ=              6.9233

 Normal termination of Gaussian 16 at Fri Jul 24 07:23:10 2020.
