 Gaussian 16, Revision A.03,
 Gaussian 16:  EM64L-G16RevA.03 25-Dec-2016

 ---------------------------------------------------------------
 #P uLC-wPBE/cc-pVDZ iop(3/107=0139800000, 3/108=0139800000) opt
 ---------------------------------------------------------------

 ------------
 H8 C18 S6 N6
 ------------
 Symbolic Z-matrix:
 Charge =  0 Multiplicity = 1

 SCF Done:  E(ULC-wPBE) =  -3406.63263457     A.U. after   16 cycles
 SCF Done:  E(ULC-wPBE) =  -3406.68280014     A.U. after   14 cycles
 SCF Done:  E(ULC-wPBE) =  -3406.70274361     A.U. after   14 cycles
 SCF Done:  E(ULC-wPBE) =  -3406.70364886     A.U. after   13 cycles
 SCF Done:  E(ULC-wPBE) =  -3406.70393836     A.U. after   13 cycles
 SCF Done:  E(ULC-wPBE) =  -3406.70404299     A.U. after   11 cycles
 SCF Done:  E(ULC-wPBE) =  -3406.70405465     A.U. after   10 cycles
 SCF Done:  E(ULC-wPBE) =  -3406.70405801     A.U. after    9 cycles
 SCF Done:  E(ULC-wPBE) =  -3406.70405946     A.U. after    8 cycles
 SCF Done:  E(ULC-wPBE) =  -3406.70405964     A.U. after    7 cycles
 SCF Done:  E(ULC-wPBE) =  -3406.70405971     A.U. after    6 cycles
 Optimization completed.
    -- Stationary point found.

                         Standard orientation:
 ---------------------------------------------------------------------
 Center     Atomic      Atomic             Coordinates (Angstroms)
 Number     Number       Type             X           Y           Z
 ---------------------------------------------------------------------
      1          6           0       10.863647    0.110755   -0.019000
      2          6           0       10.265392    1.352834   -0.047721
      3          7           0        8.893660    1.358285   -0.043311
      4          6           0        8.433053    0.123995   -0.011268
      5         16           0        9.660931   -1.133964    0.015731
      6          6           0        7.020528   -0.219113    0.001849
      7          7           0        6.548403   -1.448737    0.033973
      8          6           0        5.182721   -1.434522    0.038701
      9          6           0        4.570381   -0.186957    0.010016
     10         16           0        5.806783    1.052646   -0.026008
     11          6           0        3.155661    0.136015    0.007983
     12          6           0        2.543255    1.384504    0.002179
     13          7           0        1.178213    1.398813    0.002333
     14          6           0        0.705718    0.168144    0.008345
     15         16           0        1.919562   -1.104002    0.013540
     16          6           0       -0.705718   -0.168589    0.010601
     17          7           0       -1.178340   -1.399202    0.016794
     18          6           0       -2.543375   -1.384768    0.018340
     19          6           0       -3.155657   -0.136228    0.013176
     20         16           0       -1.919536    1.103677    0.004769
     21          6           0       -4.570376    0.186791    0.014518
     22          6           0       -5.182672    1.434248    0.048287
     23          7           0       -6.548344    1.448580    0.041972
     24          6           0       -7.020496    0.219144    0.003572
     25         16           0       -5.806803   -1.052515   -0.029189
     26          6           0       -8.433045   -0.123791   -0.012454
     27          7           0       -8.893739   -1.357864   -0.050653
     28          6           0      -10.265477   -1.352249   -0.056418
     29          6           0      -10.863638   -0.110255   -0.022504
     30         16           0       -9.660818    1.134178    0.019271
     31          1           0       11.930824   -0.133437   -0.016510
     32          1           0       10.806630    2.306763   -0.073024
     33          1           0        4.636613   -2.386608    0.065269
     34          1           0        3.089962    2.336529   -0.001534
     35          1           0       -3.090201   -2.336687    0.024997
     36          1           0       -4.636529    2.386131    0.080623
     37          1           0      -10.806788   -2.306002   -0.086713
     38          1           0      -11.930784    0.134090   -0.019914
 ---------------------------------------------------------------------

 The electronic state is 1-A.
 Alpha  occ. eigenvalues --  -88.20173 -88.20173 -88.20036 -88.20036 -88.19852
 Alpha  occ. eigenvalues --  -88.19851 -14.09881 -14.09881 -14.09713 -14.09713
 Alpha  occ. eigenvalues --  -14.09398 -14.09398 -10.06140 -10.06126 -10.06023
 Alpha  occ. eigenvalues --  -10.06023 -10.05671 -10.05671 -10.04112 -10.04111
 Alpha  occ. eigenvalues --  -10.03984 -10.03984 -10.02624 -10.02623 -10.02548
 Alpha  occ. eigenvalues --  -10.02548 -10.02267 -10.02266 -10.02086 -10.02085
 Alpha  occ. eigenvalues --   -7.80479  -7.80479  -7.80342  -7.80342  -7.80151
 Alpha  occ. eigenvalues --   -7.80151  -5.82528  -5.82527  -5.82391  -5.82391
 Alpha  occ. eigenvalues --   -5.82177  -5.82177  -5.82101  -5.82101  -5.81964
 Alpha  occ. eigenvalues --   -5.81963  -5.81753  -5.81752  -5.81711  -5.81711
 Alpha  occ. eigenvalues --   -5.81575  -5.81575  -5.81430  -5.81430  -0.99055
 Alpha  occ. eigenvalues --   -0.98687  -0.98614  -0.97287  -0.96840  -0.96787
 Alpha  occ. eigenvalues --   -0.85573  -0.85459  -0.82484  -0.82342  -0.81548
 Alpha  occ. eigenvalues --   -0.81487  -0.80585  -0.80155  -0.79314  -0.75517
 Alpha  occ. eigenvalues --   -0.74189  -0.73527  -0.67878  -0.67182  -0.65947
 Alpha  occ. eigenvalues --   -0.64694  -0.63269  -0.61792  -0.60721  -0.59180
 Alpha  occ. eigenvalues --   -0.58405  -0.57441  -0.56180  -0.55626  -0.55208
 Alpha  occ. eigenvalues --   -0.54496  -0.52839  -0.51466  -0.50154  -0.49895
 Alpha  occ. eigenvalues --   -0.48831  -0.48640  -0.48247  -0.47805  -0.46787
 Alpha  occ. eigenvalues --   -0.46621  -0.46135  -0.45859  -0.45837  -0.44675
 Alpha  occ. eigenvalues --   -0.44256  -0.43884  -0.43067  -0.42751  -0.42647
 Alpha  occ. eigenvalues --   -0.40971  -0.40967  -0.39872  -0.39751  -0.38324
 Alpha  occ. eigenvalues --   -0.36681  -0.34217  -0.34194  -0.33789  -0.33437
 Alpha  occ. eigenvalues --   -0.33022  -0.32832  -0.32785  -0.32687  -0.32304
 Alpha  occ. eigenvalues --   -0.32267  -0.32130  -0.32069  -0.32053  -0.29618
 Alpha  occ. eigenvalues --   -0.27074  -0.24938
 Alpha virt. eigenvalues --   -0.06567  -0.04485  -0.02495   0.00763   0.02743
 Alpha virt. eigenvalues --    0.03901   0.04256   0.04384   0.04605   0.04925
 Alpha virt. eigenvalues --    0.05521   0.05673   0.06037   0.07995   0.08104

  Beta  occ. eigenvalues --  -88.20173 -88.20173 -88.20036 -88.20036 -88.19852
  Beta  occ. eigenvalues --  -88.19851 -14.09881 -14.09881 -14.09713 -14.09713
  Beta  occ. eigenvalues --  -14.09398 -14.09398 -10.06140 -10.06126 -10.06023
  Beta  occ. eigenvalues --  -10.06023 -10.05671 -10.05671 -10.04112 -10.04111
  Beta  occ. eigenvalues --  -10.03984 -10.03984 -10.02624 -10.02623 -10.02548
  Beta  occ. eigenvalues --  -10.02548 -10.02267 -10.02266 -10.02086 -10.02085
  Beta  occ. eigenvalues --   -7.80479  -7.80479  -7.80342  -7.80342  -7.80151
  Beta  occ. eigenvalues --   -7.80151  -5.82528  -5.82527  -5.82391  -5.82391
  Beta  occ. eigenvalues --   -5.82177  -5.82177  -5.82101  -5.82101  -5.81964
  Beta  occ. eigenvalues --   -5.81963  -5.81753  -5.81752  -5.81711  -5.81711
  Beta  occ. eigenvalues --   -5.81575  -5.81575  -5.81430  -5.81430  -0.99055
  Beta  occ. eigenvalues --   -0.98687  -0.98614  -0.97287  -0.96840  -0.96787
  Beta  occ. eigenvalues --   -0.85573  -0.85459  -0.82484  -0.82342  -0.81548
  Beta  occ. eigenvalues --   -0.81487  -0.80585  -0.80155  -0.79314  -0.75517
  Beta  occ. eigenvalues --   -0.74189  -0.73527  -0.67878  -0.67182  -0.65947
  Beta  occ. eigenvalues --   -0.64694  -0.63269  -0.61792  -0.60721  -0.59180
  Beta  occ. eigenvalues --   -0.58405  -0.57441  -0.56180  -0.55626  -0.55208
  Beta  occ. eigenvalues --   -0.54496  -0.52839  -0.51466  -0.50154  -0.49895
  Beta  occ. eigenvalues --   -0.48831  -0.48640  -0.48247  -0.47805  -0.46787
  Beta  occ. eigenvalues --   -0.46621  -0.46135  -0.45859  -0.45837  -0.44675
  Beta  occ. eigenvalues --   -0.44256  -0.43884  -0.43067  -0.42751  -0.42647
  Beta  occ. eigenvalues --   -0.40971  -0.40967  -0.39872  -0.39751  -0.38324
  Beta  occ. eigenvalues --   -0.36681  -0.34217  -0.34194  -0.33789  -0.33437
  Beta  occ. eigenvalues --   -0.33022  -0.32832  -0.32785  -0.32687  -0.32304
  Beta  occ. eigenvalues --   -0.32267  -0.32130  -0.32069  -0.32053  -0.29618
  Beta  occ. eigenvalues --   -0.27074  -0.24938
  Beta virt. eigenvalues --   -0.06567  -0.04485  -0.02495   0.00763   0.02743
  Beta virt. eigenvalues --    0.03901   0.04256   0.04384   0.04605   0.04925
  Beta virt. eigenvalues --    0.05521   0.05673   0.06037   0.07995   0.08104

 Mulliken charges and spin densities:
               1          2
     1  C   -0.162083  -0.000000
     2  C    0.126550   0.000000
     3  N   -0.188681  -0.000000
     4  C   -0.009167   0.000000
     5  S    0.200673   0.000000
     6  C    0.027851  -0.000000
     7  N   -0.183521  -0.000000
     8  C    0.126862   0.000000
     9  C   -0.173041  -0.000000
    10  S    0.192149   0.000000
    11  C   -0.170503  -0.000000
    12  C    0.128157   0.000000
    13  N   -0.185101   0.000000
    14  C    0.016291  -0.000000
    15  S    0.194471   0.000000
    16  C    0.016239   0.000000
    17  N   -0.185087   0.000000
    18  C    0.128187   0.000000
    19  C   -0.170526  -0.000000
    20  S    0.194490  -0.000000
    21  C   -0.173087   0.000000
    22  C    0.126895  -0.000000
    23  N   -0.183522  -0.000000
    24  C    0.027842  -0.000000
    25  S    0.192190   0.000000
    26  C   -0.009169   0.000000
    27  N   -0.188681  -0.000000
    28  C    0.126546   0.000000
    29  C   -0.162085  -0.000000
    30  S    0.200659  -0.000000
    31  H    0.029950  -0.000000
    32  H    0.005579  -0.000000
    33  H    0.011536  -0.000000
    34  H    0.012049  -0.000000
    35  H    0.012029   0.000000
    36  H    0.011524   0.000000
    37  H    0.005584  -0.000000
    38  H    0.029952   0.000000
 Sum of Mulliken charges =  -0.00000   0.00000

 Dipole moment (field-independent basis, Debye):
    X=              0.0005    Y=              0.0001    Z=              0.0024  Tot=              0.0025
 Quadrupole moment (field-independent basis, Debye-Ang):
   XX=           -138.0419   YY=           -209.6267   ZZ=           -215.3641
   XY=              4.0560   XZ=              0.0069   YZ=              0.0007

 Normal termination of Gaussian 16 at Sun Jul 26 13:04:31 2020.
