 Gaussian 16, Revision A.03,
 Gaussian 16:  EM64L-G16RevA.03 25-Dec-2016

 ---------------------------------------------------------------
 #P uLC-wPBE/cc-pVDZ iop(3/107=0097400000, 3/108=0097400000) opt
 ---------------------------------------------------------------

 ----------------
 H17 C27 S6 O3 F3
 ----------------
 Symbolic Z-matrix:
 Charge =  0 Multiplicity = 1

 SCF Done:  E(ULC-wPBE) =  -3951.00126708     A.U. after   16 cycles
 SCF Done:  E(ULC-wPBE) =  -3951.06130965     A.U. after   14 cycles
 SCF Done:  E(ULC-wPBE) =  -3951.10566632     A.U. after   15 cycles
 SCF Done:  E(ULC-wPBE) =  -3951.10953683     A.U. after   14 cycles
 SCF Done:  E(ULC-wPBE) =  -3951.11328143     A.U. after   16 cycles
 SCF Done:  E(ULC-wPBE) =  -3951.11658276     A.U. after   17 cycles
 SCF Done:  E(ULC-wPBE) =  -3951.11931167     A.U. after   13 cycles
 SCF Done:  E(ULC-wPBE) =  -3951.12178234     A.U. after   14 cycles
 SCF Done:  E(ULC-wPBE) =  -3951.12225458     A.U. after   13 cycles
 SCF Done:  E(ULC-wPBE) =  -3951.12245280     A.U. after   12 cycles
 SCF Done:  E(ULC-wPBE) =  -3951.12258850     A.U. after   10 cycles
 SCF Done:  E(ULC-wPBE) =  -3951.12258994     A.U. after   10 cycles
 SCF Done:  E(ULC-wPBE) =  -3951.12259066     A.U. after   10 cycles
 SCF Done:  E(ULC-wPBE) =  -3951.12259097     A.U. after    8 cycles
 SCF Done:  E(ULC-wPBE) =  -3951.12259130     A.U. after    8 cycles
 SCF Done:  E(ULC-wPBE) =  -3951.12259175     A.U. after    9 cycles
 SCF Done:  E(ULC-wPBE) =  -3951.12259193     A.U. after    9 cycles
 SCF Done:  E(ULC-wPBE) =  -3951.12259192     A.U. after    8 cycles
 SCF Done:  E(ULC-wPBE) =  -3951.12259217     A.U. after    8 cycles
 SCF Done:  E(ULC-wPBE) =  -3951.12259217     A.U. after    7 cycles
 Optimization completed.
    -- Stationary point found.

                         Standard orientation:
 ---------------------------------------------------------------------
 Center     Atomic      Atomic             Coordinates (Angstroms)
 Number     Number       Type             X           Y           Z
 ---------------------------------------------------------------------
      1          6           0       11.171573   -0.360633   -0.072857
      2          6           0       10.643074   -1.630404   -0.160789
      3          6           0        9.225165   -1.594427   -0.129200
      4          9           0        8.468080   -2.719126   -0.202105
      5          6           0        8.649064   -0.332549   -0.019017
      6         16           0        9.942015    0.863784    0.047836
      7          6           0        7.249014    0.009569    0.036425
      8          6           0        6.673037    1.282038    0.146753
      9          8           0        7.493963    2.371085    0.212603
     10          6           0        6.863932    3.645424    0.330306
     11          6           0        5.251581    1.273877    0.187133
     12          6           0        4.717455   -0.008936    0.104502
     13         16           0        5.985993   -1.212409   -0.034772
     14          6           0        3.328927   -0.410072    0.115703
     15          6           0        2.787831   -1.679161    0.291332
     16          6           0        1.377840   -1.660027    0.241099
     17          9           0        0.632525   -2.782819    0.396334
     18          6           0        0.783446   -0.416775    0.034041
     19         16           0        2.060160    0.789892   -0.122531
     20          6           0       -0.616919   -0.098941   -0.051035
     21          6           0       -1.208883    1.153941   -0.267852
     22          8           0       -0.400788    2.243306   -0.422928
     23          6           0       -1.045701    3.494986   -0.652561
     24          6           0       -2.629236    1.125122   -0.309950
     25          6           0       -3.148548   -0.153041   -0.122444
     26         16           0       -1.866994   -1.326271    0.119216
     27          6           0       -4.532207   -0.570498   -0.104236
     28          6           0       -5.057127   -1.856120   -0.174477
     29          6           0       -6.468120   -1.849667   -0.129128
     30          9           0       -7.199383   -2.990623   -0.190686
     31          6           0       -7.076870   -0.601734   -0.028253
     32         16           0       -5.816480    0.628992    0.029317
     33          6           0       -8.484246   -0.293021    0.027701
     34          6           0       -9.087840    0.966016    0.137524
     35          8           0       -8.293823    2.075973    0.203731
     36          6           0       -8.955626    3.333932    0.320283
     37          6           0      -10.515991    0.921016    0.167507
     38          6           0      -10.992723   -0.370587    0.080859
     39         16           0       -9.722375   -1.541691   -0.038014
     40          1           0       12.225690   -0.065279   -0.071932
     41          1           0       11.224442   -2.555396   -0.244932
     42          1           0        6.209714    3.857518   -0.543348
     43          1           0        6.263853    3.717757    1.263552
     44          1           0        7.681701    4.387038    0.363335
     45          1           0        4.627867    2.168487    0.295224
     46          1           0        3.373041   -2.588778    0.469389
     47          1           0       -1.642874    3.478166   -1.590188
     48          1           0       -1.705631    3.773723    0.197667
     49          1           0       -0.236885    4.240995   -0.747855
     50          1           0       -3.263485    1.999827   -0.493338
     51          1           0       -4.460647   -2.770418   -0.274193
     52          1           0       -9.608605    3.533412   -0.557340
     53          1           0       -9.563626    3.389446    1.249549
     54          1           0       -8.156786    4.095619    0.361272
     55          1           0      -11.166435    1.798665    0.249852
     56          1           0      -12.035682   -0.703284    0.081083
 ---------------------------------------------------------------------

 The electronic state is 1-A.
 Alpha  occ. eigenvalues --  -88.15998 -88.15933 -88.15904 -88.15810 -88.15743
 Alpha  occ. eigenvalues --  -88.15644 -24.34775 -24.34760 -24.34493 -18.87046
 Alpha  occ. eigenvalues --  -18.87023 -18.86752 -10.03394 -10.03366 -10.02991
 Alpha  occ. eigenvalues --  -10.02084 -10.02081 -10.02034 -10.01969 -10.01827
 Alpha  occ. eigenvalues --  -10.01780  -9.99948  -9.99823  -9.99764  -9.99762
 Alpha  occ. eigenvalues --   -9.99740  -9.99706  -9.99354  -9.99347  -9.99241
 Alpha  occ. eigenvalues --   -9.99116  -9.98700  -9.98266  -9.96830  -9.96702
 Alpha  occ. eigenvalues --   -9.96617  -9.96530  -9.96521  -9.96395  -7.76187
 Alpha  occ. eigenvalues --   -7.76148  -7.76093  -7.76035  -7.75924  -7.75870
 Alpha  occ. eigenvalues --   -5.78322  -5.78259  -5.78229  -5.78165  -5.78042
 Alpha  occ. eigenvalues --   -5.77997  -5.77872  -5.77799  -5.77779  -5.77711
 Alpha  occ. eigenvalues --   -5.77583  -5.77544  -5.77376  -5.77364  -5.77266
 Alpha  occ. eigenvalues --   -5.77216  -5.77145  -5.77054  -1.17781  -1.17761
 Alpha  occ. eigenvalues --   -1.17452  -1.04726  -1.04673  -1.04446  -0.88146
 Alpha  occ. eigenvalues --   -0.87709  -0.86932  -0.86326  -0.85459  -0.84808
 Alpha  occ. eigenvalues --   -0.78098  -0.76700  -0.75298  -0.74254  -0.74047
 Alpha  occ. eigenvalues --   -0.73913  -0.72809  -0.72653  -0.72070  -0.71341
 Alpha  occ. eigenvalues --   -0.70655  -0.70141  -0.68646  -0.67403  -0.65861
 Alpha  occ. eigenvalues --   -0.62331  -0.61363  -0.59979  -0.59135  -0.58254
 Alpha  occ. eigenvalues --   -0.57470  -0.56687  -0.56112  -0.55862  -0.55827
 Alpha  occ. eigenvalues --   -0.54261  -0.54187  -0.53957  -0.53763  -0.52535
 Alpha  occ. eigenvalues --   -0.50341  -0.49605  -0.48511  -0.48058  -0.48037
 Alpha  occ. eigenvalues --   -0.47793  -0.47578  -0.47224  -0.47012  -0.46130
 Alpha  occ. eigenvalues --   -0.46071  -0.45738  -0.45694  -0.45503  -0.45367
 Alpha  occ. eigenvalues --   -0.45114  -0.44885  -0.44601  -0.44411  -0.43162
 Alpha  occ. eigenvalues --   -0.42342  -0.41896  -0.41648  -0.41411  -0.41086
 Alpha  occ. eigenvalues --   -0.41003  -0.40131  -0.39373  -0.38912  -0.38691
 Alpha  occ. eigenvalues --   -0.38400  -0.38320  -0.38134  -0.37679  -0.37378
 Alpha  occ. eigenvalues --   -0.37282  -0.36947  -0.35634  -0.35250  -0.35029
 Alpha  occ. eigenvalues --   -0.34659  -0.34447  -0.34414  -0.34216  -0.34070
 Alpha  occ. eigenvalues --   -0.33893  -0.31983  -0.30485  -0.28736  -0.27392
 Alpha  occ. eigenvalues --   -0.27295  -0.26974  -0.26405  -0.26216  -0.26046
 Alpha  occ. eigenvalues --   -0.23908  -0.21636  -0.19257
 Alpha virt. eigenvalues --   -0.05158  -0.02764  -0.00114   0.01403   0.03413
 Alpha virt. eigenvalues --    0.03607   0.03675   0.04202   0.04505   0.04844
 Alpha virt. eigenvalues --    0.04957   0.05657   0.06650   0.07414   0.08171

  Beta  occ. eigenvalues --  -88.15998 -88.15933 -88.15904 -88.15810 -88.15743
  Beta  occ. eigenvalues --  -88.15644 -24.34775 -24.34760 -24.34493 -18.87046
  Beta  occ. eigenvalues --  -18.87023 -18.86752 -10.03394 -10.03366 -10.02991
  Beta  occ. eigenvalues --  -10.02084 -10.02081 -10.02034 -10.01969 -10.01827
  Beta  occ. eigenvalues --  -10.01780  -9.99948  -9.99823  -9.99764  -9.99762
  Beta  occ. eigenvalues --   -9.99740  -9.99706  -9.99354  -9.99347  -9.99241
  Beta  occ. eigenvalues --   -9.99116  -9.98700  -9.98266  -9.96830  -9.96702
  Beta  occ. eigenvalues --   -9.96617  -9.96530  -9.96521  -9.96395  -7.76187
  Beta  occ. eigenvalues --   -7.76148  -7.76093  -7.76035  -7.75924  -7.75870
  Beta  occ. eigenvalues --   -5.78322  -5.78259  -5.78229  -5.78165  -5.78042
  Beta  occ. eigenvalues --   -5.77997  -5.77872  -5.77799  -5.77779  -5.77711
  Beta  occ. eigenvalues --   -5.77583  -5.77544  -5.77376  -5.77364  -5.77266
  Beta  occ. eigenvalues --   -5.77216  -5.77145  -5.77054  -1.17781  -1.17761
  Beta  occ. eigenvalues --   -1.17452  -1.04726  -1.04673  -1.04446  -0.88146
  Beta  occ. eigenvalues --   -0.87709  -0.86932  -0.86326  -0.85459  -0.84808
  Beta  occ. eigenvalues --   -0.78098  -0.76700  -0.75298  -0.74254  -0.74047
  Beta  occ. eigenvalues --   -0.73913  -0.72809  -0.72653  -0.72070  -0.71341
  Beta  occ. eigenvalues --   -0.70655  -0.70141  -0.68646  -0.67403  -0.65861
  Beta  occ. eigenvalues --   -0.62331  -0.61363  -0.59979  -0.59135  -0.58254
  Beta  occ. eigenvalues --   -0.57470  -0.56687  -0.56112  -0.55862  -0.55827
  Beta  occ. eigenvalues --   -0.54261  -0.54187  -0.53957  -0.53763  -0.52535
  Beta  occ. eigenvalues --   -0.50341  -0.49605  -0.48511  -0.48058  -0.48037
  Beta  occ. eigenvalues --   -0.47793  -0.47578  -0.47224  -0.47012  -0.46130
  Beta  occ. eigenvalues --   -0.46071  -0.45738  -0.45694  -0.45503  -0.45367
  Beta  occ. eigenvalues --   -0.45114  -0.44885  -0.44601  -0.44411  -0.43162
  Beta  occ. eigenvalues --   -0.42342  -0.41896  -0.41648  -0.41411  -0.41086
  Beta  occ. eigenvalues --   -0.41003  -0.40131  -0.39373  -0.38912  -0.38691
  Beta  occ. eigenvalues --   -0.38400  -0.38320  -0.38134  -0.37679  -0.37378
  Beta  occ. eigenvalues --   -0.37282  -0.36947  -0.35634  -0.35250  -0.35029
  Beta  occ. eigenvalues --   -0.34659  -0.34447  -0.34414  -0.34216  -0.34070
  Beta  occ. eigenvalues --   -0.33893  -0.31983  -0.30485  -0.28736  -0.27392
  Beta  occ. eigenvalues --   -0.27295  -0.26974  -0.26405  -0.26216  -0.26046
  Beta  occ. eigenvalues --   -0.23908  -0.21636  -0.19257
  Beta virt. eigenvalues --   -0.05158  -0.02764  -0.00114   0.01403   0.03413
  Beta virt. eigenvalues --    0.03607   0.03675   0.04202   0.04505   0.04844
  Beta virt. eigenvalues --    0.04957   0.05657   0.06650   0.07414   0.08171

 Mulliken charges and spin densities:
               1          2
     1  C   -0.127367   0.000000
     2  C    0.077590  -0.000000
     3  C    0.087417   0.000000
     4  F   -0.125744  -0.000000
     5  C   -0.121886   0.000000
     6  S    0.159974  -0.000000
     7  C   -0.111344   0.000000
     8  C    0.141939  -0.000000
     9  O   -0.246286   0.000000
    10  C    0.064408  -0.000000
    11  C    0.011002   0.000000
    12  C   -0.100027  -0.000000
    13  S    0.148564   0.000000
    14  C   -0.104777   0.000000
    15  C    0.047585  -0.000000
    16  C    0.105614   0.000000
    17  F   -0.122407   0.000000
    18  C   -0.104092   0.000000
    19  S    0.144731  -0.000000
    20  C   -0.125314   0.000000
    21  C    0.138643  -0.000000
    22  O   -0.245870   0.000000
    23  C    0.065135  -0.000000
    24  C    0.013215   0.000000
    25  C   -0.096761   0.000000
    26  S    0.149996  -0.000000
    27  C   -0.108052   0.000000
    28  C    0.045281  -0.000000
    29  C    0.107797  -0.000000
    30  F   -0.123376  -0.000000
    31  C   -0.089574   0.000000
    32  S    0.144985  -0.000000
    33  C   -0.147462  -0.000000
    34  C    0.123436   0.000000
    35  O   -0.244063   0.000000
    36  C    0.063534   0.000000
    37  C    0.042385  -0.000000
    38  C   -0.123212   0.000000
    39  S    0.162956   0.000000
    40  H    0.021114   0.000000
    41  H   -0.006654  -0.000000
    42  H    0.045962  -0.000000
    43  H    0.047088  -0.000000
    44  H    0.052256   0.000000
    45  H   -0.014066   0.000000
    46  H   -0.003629   0.000000
    47  H    0.048207  -0.000000
    48  H    0.046601   0.000000
    49  H    0.051135  -0.000000
    50  H   -0.013713  -0.000000
    51  H   -0.003412   0.000000
    52  H    0.046043  -0.000000
    53  H    0.046559  -0.000000
    54  H    0.051140  -0.000000
    55  H   -0.013773  -0.000000
    56  H    0.020571   0.000000
 Sum of Mulliken charges =  -0.00000  -0.00000

 Dipole moment (field-independent basis, Debye):
    X=             -2.2578    Y=              7.1408    Z=              0.0050  Tot=              7.4892
 Quadrupole moment (field-independent basis, Debye-Ang):
   XX=           -206.3936   YY=           -231.0020   ZZ=           -270.8945
   XY=            -14.0726   XZ=             -0.1207   YZ=              0.0307

 Normal termination of Gaussian 16 at Thu Jul 23 22:07:51 2020.
