 Gaussian 16, Revision A.03,
 Gaussian 16:  EM64L-G16RevA.03 25-Dec-2016

 ---------------------------------------------------------------
 #P uLC-wPBE/cc-pVDZ iop(3/107=0208700000, 3/108=0208700000) opt
 ---------------------------------------------------------------

 ----------
 H32 C39 O3
 ----------
 Symbolic Z-matrix:
 Charge =  0 Multiplicity = 1

 SCF Done:  E(ULC-wPBE) =  -1729.49570644     A.U. after   18 cycles
 SCF Done:  E(ULC-wPBE) =  -1729.56522070     A.U. after   16 cycles
 SCF Done:  E(ULC-wPBE) =  -1729.61059420     A.U. after   15 cycles
 SCF Done:  E(ULC-wPBE) =  -1729.62284982     A.U. after   15 cycles
 SCF Done:  E(ULC-wPBE) =  -1729.62606463     A.U. after   16 cycles
 SCF Done:  E(ULC-wPBE) =  -1729.62667125     A.U. after   14 cycles
 SCF Done:  E(ULC-wPBE) =  -1729.62682307     A.U. after   13 cycles
 SCF Done:  E(ULC-wPBE) =  -1729.62693411     A.U. after   13 cycles
 SCF Done:  E(ULC-wPBE) =  -1729.62695535     A.U. after   12 cycles
 SCF Done:  E(ULC-wPBE) =  -1729.62696468     A.U. after   12 cycles
 SCF Done:  E(ULC-wPBE) =  -1729.62696696     A.U. after    8 cycles
 SCF Done:  E(ULC-wPBE) =  -1729.62696772     A.U. after    8 cycles
 SCF Done:  E(ULC-wPBE) =  -1729.62696800     A.U. after    7 cycles
 SCF Done:  E(ULC-wPBE) =  -1729.62696817     A.U. after    6 cycles
 SCF Done:  E(ULC-wPBE) =  -1729.62696821     A.U. after    6 cycles
 SCF Done:  E(ULC-wPBE) =  -1729.62696830     A.U. after    5 cycles
 Optimization completed.
    -- Stationary point found.

                         Standard orientation:
 ---------------------------------------------------------------------
 Center     Atomic      Atomic             Coordinates (Angstroms)
 Number     Number       Type             X           Y           Z
 ---------------------------------------------------------------------
      1          6           0      -12.417698   -0.936665    0.041548
      2          6           0      -11.606550   -1.805615    0.777709
      3          6           0      -10.216813   -1.650365    0.762884
      4          6           0       -9.610667   -0.625313    0.014129
      5          6           0      -10.438912    0.245763   -0.717451
      6          6           0      -11.827161    0.088884   -0.705720
      7          6           0       -8.123839   -0.514689   -0.023504
      8          6           0       -7.338902   -1.653582   -0.248700
      9          6           0       -5.942273   -1.603226   -0.277106
     10          6           0       -5.278788   -0.385570   -0.072993
     11          6           0       -6.048652    0.770120    0.157334
     12          6           0       -7.448353    0.714988    0.181580
     13          8           0       -8.240870    1.807310    0.401814
     14          6           0       -7.604829    3.047359    0.665996
     15          6           0       -3.792157   -0.305204   -0.099320
     16          6           0       -3.087803    0.487685    0.825113
     17          6           0       -1.694916    0.565012    0.800033
     18          6           0       -0.947383   -0.154737   -0.149647
     19          6           0       -1.651291   -0.945917   -1.075025
     20          6           0       -3.045532   -1.020382   -1.051378
     21          6           0        0.542711   -0.134656   -0.167257
     22          6           0        1.261038   -1.333767   -0.271562
     23          6           0        2.657789   -1.365949   -0.309440
     24          6           0        3.390028   -0.172398   -0.246387
     25          6           0        2.688063    1.043226   -0.143006
     26          6           0        1.287953    1.070020   -0.101810
     27          8           0        0.560413    2.223712   -0.003145
     28          6           0        1.265236    3.454866    0.007300
     29          6           0        4.878558   -0.179757   -0.286426
     30          6           0        5.591960    0.773364   -1.033192
     31          6           0        6.988042    0.759543   -1.070389
     32          6           0        7.725863   -0.204994   -0.362076
     33          6           0        7.012049   -1.155304    0.390073
     34          6           0        5.617296   -1.144046    0.423239
     35          6           0        9.213766   -0.227496   -0.460885
     36          6           0        9.832731   -0.131773   -1.715433
     37          6           0       11.225172   -0.131828   -1.857382
     38          6           0       12.024650   -0.227794   -0.719077
     39          6           0       11.440066   -0.323041    0.549921
     40          6           0       10.043856   -0.324780    0.685297
     41          8           0        9.400342   -0.403823    1.889073
     42          6           0       10.194649   -0.452303    3.063461
     43          1           0      -13.509088   -1.056278    0.051428
     44          1           0      -12.057954   -2.609604    1.374128
     45          1           0       -9.585837   -2.326252    1.355697
     46          1           0       -9.984081    1.051597   -1.305136
     47          1           0      -12.455339    0.775000   -1.289432
     48          1           0       -7.848514   -2.611664   -0.416857
     49          1           0       -5.365047   -2.522033   -0.439045
     50          1           0       -5.532601    1.726540    0.294268
     51          1           0       -8.417883    3.771778    0.840991
     52          1           0       -6.962436    2.995784    1.569693
     53          1           0       -6.991476    3.389892   -0.193583
     54          1           0       -3.642821    1.034778    1.599091
     55          1           0       -1.172917    1.184270    1.538488
     56          1           0       -1.094257   -1.495603   -1.845573
     57          1           0       -3.567862   -1.623651   -1.805672
     58          1           0        0.697996   -2.275571   -0.314337
     59          1           0        3.180144   -2.325500   -0.409374
     60          1           0        3.259174    1.975068   -0.070230
     61          1           0        0.495097    4.242628    0.060130
     62          1           0        1.864641    3.593339   -0.916492
     63          1           0        1.934856    3.541556    0.888422
     64          1           0        5.043802    1.528036   -1.613018
     65          1           0        7.521029    1.519709   -1.657193
     66          1           0        7.561602   -1.913325    0.960003
     67          1           0        5.086328   -1.889068    1.030616
     68          1           0        9.193638   -0.073187   -2.606626
     69          1           0       11.677665   -0.063242   -2.854374
     70          1           0       13.119037   -0.231590   -0.806855
     71          1           0       12.083551   -0.392822    1.433548
     72          1           0       10.831688    0.450768    3.166763
     73          1           0       10.840505   -1.354899    3.089437
     74          1           0        9.484531   -0.492112    3.906448
 ---------------------------------------------------------------------

 The electronic state is 1-A.
 Alpha  occ. eigenvalues --  -18.91739 -18.91671 -18.91467 -10.07695 -10.07611
 Alpha  occ. eigenvalues --  -10.07420 -10.07302 -10.07223 -10.07038 -10.02808
 Alpha  occ. eigenvalues --  -10.02632 -10.02602 -10.02543 -10.02490 -10.02480
 Alpha  occ. eigenvalues --  -10.02391 -10.02328 -10.02283 -10.02128 -10.02084
 Alpha  occ. eigenvalues --  -10.01880 -10.01791 -10.01781 -10.01682 -10.01650
 Alpha  occ. eigenvalues --  -10.01605 -10.01556 -10.01543 -10.01490 -10.01463
 Alpha  occ. eigenvalues --  -10.01461 -10.01451 -10.01382 -10.01351 -10.01319
 Alpha  occ. eigenvalues --  -10.01280 -10.01245 -10.01243 -10.01233 -10.01075
 Alpha  occ. eigenvalues --  -10.01055 -10.00891  -1.10167  -1.10087  -1.09894
 Alpha  occ. eigenvalues --   -0.91518  -0.91117  -0.90474  -0.89764  -0.88879
 Alpha  occ. eigenvalues --   -0.88126  -0.84551  -0.83074  -0.81378  -0.80163
 Alpha  occ. eigenvalues --   -0.80039  -0.79904  -0.79136  -0.78896  -0.78716
 Alpha  occ. eigenvalues --   -0.78524  -0.77222  -0.76275  -0.74985  -0.74517
 Alpha  occ. eigenvalues --   -0.73533  -0.69556  -0.67658  -0.67007  -0.66552
 Alpha  occ. eigenvalues --   -0.65673  -0.65343  -0.64764  -0.63986  -0.63669
 Alpha  occ. eigenvalues --   -0.63317  -0.62736  -0.62305  -0.59758  -0.59423
 Alpha  occ. eigenvalues --   -0.59043  -0.56966  -0.56034  -0.55772  -0.54823
 Alpha  occ. eigenvalues --   -0.54533  -0.53878  -0.53119  -0.53045  -0.52965
 Alpha  occ. eigenvalues --   -0.52871  -0.52689  -0.52041  -0.51083  -0.50880
 Alpha  occ. eigenvalues --   -0.50637  -0.50173  -0.49831  -0.49562  -0.49330
 Alpha  occ. eigenvalues --   -0.49092  -0.48787  -0.47754  -0.47344  -0.47202
 Alpha  occ. eigenvalues --   -0.47109  -0.46903  -0.46744  -0.46431  -0.45526
 Alpha  occ. eigenvalues --   -0.45348  -0.44983  -0.44603  -0.43748  -0.43206
 Alpha  occ. eigenvalues --   -0.43028  -0.42937  -0.42704  -0.41680  -0.41481
 Alpha  occ. eigenvalues --   -0.41402  -0.41154  -0.40856  -0.40317  -0.39487
 Alpha  occ. eigenvalues --   -0.39188  -0.39054  -0.38687  -0.38587  -0.38202
 Alpha  occ. eigenvalues --   -0.38072  -0.37609  -0.37259  -0.34981  -0.33944
 Alpha  occ. eigenvalues --   -0.32491  -0.31878  -0.31744  -0.31460  -0.31035
 Alpha  occ. eigenvalues --   -0.30068  -0.29783  -0.28450  -0.27468  -0.26280
 Alpha virt. eigenvalues --    0.00700   0.02382   0.04620   0.05294   0.05430
 Alpha virt. eigenvalues --    0.05839   0.06093   0.06150   0.06330   0.06688
 Alpha virt. eigenvalues --    0.08731   0.10301   0.12490   0.12538   0.12717

  Beta  occ. eigenvalues --  -18.91739 -18.91671 -18.91467 -10.07695 -10.07611
  Beta  occ. eigenvalues --  -10.07420 -10.07302 -10.07223 -10.07038 -10.02808
  Beta  occ. eigenvalues --  -10.02632 -10.02602 -10.02543 -10.02490 -10.02480
  Beta  occ. eigenvalues --  -10.02391 -10.02328 -10.02283 -10.02128 -10.02084
  Beta  occ. eigenvalues --  -10.01880 -10.01791 -10.01781 -10.01682 -10.01650
  Beta  occ. eigenvalues --  -10.01605 -10.01556 -10.01543 -10.01490 -10.01463
  Beta  occ. eigenvalues --  -10.01461 -10.01451 -10.01382 -10.01351 -10.01319
  Beta  occ. eigenvalues --  -10.01280 -10.01245 -10.01243 -10.01233 -10.01075
  Beta  occ. eigenvalues --  -10.01055 -10.00891  -1.10167  -1.10087  -1.09894
  Beta  occ. eigenvalues --   -0.91518  -0.91117  -0.90474  -0.89764  -0.88879
  Beta  occ. eigenvalues --   -0.88126  -0.84551  -0.83074  -0.81378  -0.80163
  Beta  occ. eigenvalues --   -0.80039  -0.79904  -0.79136  -0.78896  -0.78716
  Beta  occ. eigenvalues --   -0.78524  -0.77222  -0.76275  -0.74985  -0.74517
  Beta  occ. eigenvalues --   -0.73533  -0.69556  -0.67658  -0.67007  -0.66552
  Beta  occ. eigenvalues --   -0.65673  -0.65343  -0.64764  -0.63986  -0.63669
  Beta  occ. eigenvalues --   -0.63317  -0.62736  -0.62305  -0.59758  -0.59423
  Beta  occ. eigenvalues --   -0.59043  -0.56966  -0.56034  -0.55772  -0.54823
  Beta  occ. eigenvalues --   -0.54533  -0.53878  -0.53119  -0.53045  -0.52965
  Beta  occ. eigenvalues --   -0.52871  -0.52689  -0.52041  -0.51083  -0.50880
  Beta  occ. eigenvalues --   -0.50637  -0.50173  -0.49831  -0.49562  -0.49330
  Beta  occ. eigenvalues --   -0.49092  -0.48787  -0.47754  -0.47344  -0.47202
  Beta  occ. eigenvalues --   -0.47109  -0.46903  -0.46744  -0.46431  -0.45526
  Beta  occ. eigenvalues --   -0.45348  -0.44983  -0.44603  -0.43748  -0.43206
  Beta  occ. eigenvalues --   -0.43028  -0.42937  -0.42704  -0.41680  -0.41481
  Beta  occ. eigenvalues --   -0.41402  -0.41154  -0.40856  -0.40317  -0.39487
  Beta  occ. eigenvalues --   -0.39188  -0.39054  -0.38687  -0.38587  -0.38202
  Beta  occ. eigenvalues --   -0.38072  -0.37609  -0.37259  -0.34981  -0.33944
  Beta  occ. eigenvalues --   -0.32491  -0.31878  -0.31744  -0.31460  -0.31035
  Beta  occ. eigenvalues --   -0.30068  -0.29783  -0.28450  -0.27468  -0.26280
  Beta virt. eigenvalues --    0.00700   0.02382   0.04620   0.05294   0.05430
  Beta virt. eigenvalues --    0.05839   0.06093   0.06150   0.06330   0.06688
  Beta virt. eigenvalues --    0.08731   0.10301   0.12490   0.12538   0.12717

 Mulliken charges and spin densities:
               1          2
     1  C    0.017448   0.000000
     2  C    0.024176  -0.000000
     3  C    0.007824   0.000000
     4  C    0.012091   0.000000
     5  C    0.034901  -0.000000
     6  C    0.022805   0.000000
     7  C   -0.018162   0.000000
     8  C    0.030372   0.000000
     9  C    0.006587   0.000000
    10  C    0.017412  -0.000000
    11  C   -0.032643   0.000000
    12  C    0.104188  -0.000000
    13  O   -0.239505  -0.000000
    14  C    0.064728  -0.000000
    15  C    0.017444   0.000000
    16  C    0.006698  -0.000000
    17  C    0.043803   0.000000
    18  C    0.024993  -0.000000
    19  C    0.015714   0.000000
    20  C    0.009557  -0.000000
    21  C   -0.019278   0.000000
    22  C    0.028351   0.000000
    23  C    0.007530  -0.000000
    24  C    0.017538   0.000000
    25  C   -0.031567  -0.000000
    26  C    0.103148   0.000000
    27  O   -0.240710   0.000000
    28  C    0.064816   0.000000
    29  C    0.014606   0.000000
    30  C    0.008109  -0.000000
    31  C    0.017969   0.000000
    32  C    0.023964  -0.000000
    33  C    0.046647   0.000000
    34  C    0.009336  -0.000000
    35  C   -0.029055  -0.000000
    36  C    0.019463   0.000000
    37  C    0.025911  -0.000000
    38  C    0.024639   0.000000
    39  C   -0.030499  -0.000000
    40  C    0.095375   0.000000
    41  O   -0.238368   0.000000
    42  C    0.061721   0.000000
    43  H   -0.019662  -0.000000
    44  H   -0.018102  -0.000000
    45  H   -0.025319  -0.000000
    46  H   -0.030092   0.000000
    47  H   -0.018853  -0.000000
    48  H   -0.025816   0.000000
    49  H   -0.029972  -0.000000
    50  H   -0.023736  -0.000000
    51  H    0.049552   0.000000
    52  H    0.042716   0.000000
    53  H    0.045358   0.000000
    54  H   -0.028263  -0.000000
    55  H   -0.030625   0.000000
    56  H   -0.024485   0.000000
    57  H   -0.024792   0.000000
    58  H   -0.025296  -0.000000
    59  H   -0.029104  -0.000000
    60  H   -0.023393  -0.000000
    61  H    0.048832  -0.000000
    62  H    0.043374  -0.000000
    63  H    0.045980  -0.000000
    64  H   -0.027596  -0.000000
    65  H   -0.025687  -0.000000
    66  H   -0.029483  -0.000000
    67  H   -0.025267  -0.000000
    68  H   -0.024239  -0.000000
    69  H   -0.021089   0.000000
    70  H   -0.017761   0.000000
    71  H   -0.016018  -0.000000
    72  H    0.044043  -0.000000
    73  H    0.043447   0.000000
    74  H    0.051269  -0.000000
 Sum of Mulliken charges =  -0.00000   0.00000

 Dipole moment (field-independent basis, Debye):
    X=              2.9659    Y=              2.5081    Z=              1.5559  Tot=              4.1842
 Quadrupole moment (field-independent basis, Debye-Ang):
   XX=           -214.1318   YY=           -221.4987   ZZ=           -235.6576
   XY=             -6.9911   XZ=             13.0513   YZ=             -1.5947

 Normal termination of Gaussian 16 at Thu Jul 23 21:56:34 2020.
