 Gaussian 16, Revision A.03,
 Gaussian 16:  EM64L-G16RevA.03 25-Dec-2016

 ---------------------------------------------------------------
 #P uLC-wPBE/cc-pVDZ iop(3/107=0203800000, 3/108=0203800000) opt
 ---------------------------------------------------------------

 -------------
 H32 C55 N5 F5
 -------------
 Symbolic Z-matrix:
 Charge =  0 Multiplicity = 1

 SCF Done:  E(ULC-wPBE) =  -2885.61099127     A.U. after   17 cycles
 SCF Done:  E(ULC-wPBE) =  -2885.68884971     A.U. after   15 cycles
 SCF Done:  E(ULC-wPBE) =  -2885.74887752     A.U. after   15 cycles
 SCF Done:  E(ULC-wPBE) =  -2885.76423835     A.U. after   15 cycles
 SCF Done:  E(ULC-wPBE) =  -2885.76849838     A.U. after   16 cycles
 SCF Done:  E(ULC-wPBE) =  -2885.77031162     A.U. after   16 cycles
 SCF Done:  E(ULC-wPBE) =  -2885.77169997     A.U. after   17 cycles
 SCF Done:  E(ULC-wPBE) =  -2885.77290753     A.U. after   15 cycles
 SCF Done:  E(ULC-wPBE) =  -2885.77559055     A.U. after   15 cycles
 SCF Done:  E(ULC-wPBE) =  -2885.77631934     A.U. after   15 cycles
 SCF Done:  E(ULC-wPBE) =  -2885.78016346     A.U. after   12 cycles
 SCF Done:  E(ULC-wPBE) =  -2885.78016476     A.U. after   10 cycles
 SCF Done:  E(ULC-wPBE) =  -2885.78017335     A.U. after   12 cycles
 SCF Done:  E(ULC-wPBE) =  -2885.78017625     A.U. after   12 cycles
 SCF Done:  E(ULC-wPBE) =  -2885.78017687     A.U. after   10 cycles
 SCF Done:  E(ULC-wPBE) =  -2885.78017697     A.U. after    8 cycles
 SCF Done:  E(ULC-wPBE) =  -2885.78017702     A.U. after    6 cycles
 SCF Done:  E(ULC-wPBE) =  -2885.78017697     A.U. after    6 cycles
 SCF Done:  E(ULC-wPBE) =  -2885.78017687     A.U. after    7 cycles
 SCF Done:  E(ULC-wPBE) =  -2885.78017679     A.U. after    6 cycles
 Optimization completed.
    -- Stationary point found.

                         Standard orientation:
 ---------------------------------------------------------------------
 Center     Atomic      Atomic             Coordinates (Angstroms)
 Number     Number       Type             X           Y           Z
 ---------------------------------------------------------------------
      1          6           0      -20.658500    1.408736   -0.460006
      2          6           0      -20.288671    0.063740   -0.509439
      3          6           0      -18.935773   -0.275336   -0.439466
      4          6           0      -17.979869    0.751716   -0.320764
      5          7           0      -18.338054    2.052709   -0.283084
      6          6           0      -19.637914    2.358945   -0.350442
      7          6           0      -16.505820    0.505342   -0.255899
      8          6           0      -15.621468    1.586582   -0.440980
      9          6           0      -14.238057    1.434655   -0.394525
     10          6           0      -13.660912    0.174230   -0.149386
     11          6           0      -14.521686   -0.915951    0.047361
     12          6           0      -15.901475   -0.737476   -0.007499
     13          9           0      -16.661195   -1.843876    0.215886
     14          6           0      -12.187511   -0.003809   -0.096518
     15          6           0      -11.549322   -1.129477   -0.640264
     16          6           0      -10.161885   -1.237826   -0.560058
     17          6           0       -9.429945   -0.208513    0.056893
     18          7           0      -10.025590    0.872663    0.596781
     19          6           0      -11.357403    0.954185    0.516702
     20          6           0       -7.942421   -0.268171    0.122184
     21          6           0       -7.178011   -0.662728   -0.989360
     22          6           0       -5.783910   -0.714375   -0.945067
     23          6           0       -5.093609   -0.370912    0.231276
     24          6           0       -5.842504    0.018402    1.354084
     25          6           0       -7.232539    0.064062    1.287491
     26          9           0       -7.902336    0.418983    2.401735
     27          6           0       -3.609862   -0.418598    0.291698
     28          6           0       -2.921697   -0.889424    1.420744
     29          6           0       -1.527920   -0.911833    1.415226
     30          6           0       -0.841081   -0.470313    0.271037
     31          7           0       -1.483550   -0.001604   -0.816481
     32          6           0       -2.819847    0.019817   -0.788184
     33          6           0        0.647033   -0.521234    0.212081
     34          6           0        1.357432   -1.646048    0.666017
     35          6           0        2.750213   -1.710422    0.607877
     36          6           0        3.494639   -0.635243    0.089901
     37          6           0        2.801071    0.500070   -0.360942
     38          6           0        1.410590    0.542286   -0.295537
     39          9           0        0.796718    1.664565   -0.718852
     40          6           0        4.977168   -0.692797    0.023225
     41          6           0        5.666337   -1.859084   -0.340357
     42          6           0        7.060013   -1.863497   -0.381067
     43          6           0        7.760236   -0.686381   -0.056345
     44          7           0        7.106134    0.442028    0.291619
     45          6           0        5.772674    0.427195    0.328489
     46          6           0        9.249429   -0.567545   -0.089796
     47          6           0        9.837937    0.710640   -0.009769
     48          6           0       11.217218    0.899254   -0.035948
     49          6           0       12.091806   -0.199293   -0.138302
     50          6           0       11.529198   -1.482432   -0.210894
     51          6           0       10.146620   -1.643607   -0.185905
     52          9           0        9.688402   -2.923877   -0.240317
     53          6           0       13.565207   -0.015915   -0.166879
     54          6           0       14.398007   -0.779697   -0.999594
     55          6           0       15.774147   -0.558991   -0.982358
     56          6           0       16.299516    0.424551   -0.126242
     57          7           0       15.516125    1.167119    0.680351
     58          6           0       14.198993    0.940977    0.648668
     59          6           0       17.768394    0.672091   -0.066481
     60          6           0       18.683008   -0.394969   -0.018539
     61          6           0       20.061771   -0.175418    0.044793
     62          6           0       20.556552    1.133176    0.056656
     63          6           0       19.672090    2.213940    0.002202
     64          6           0       18.300455    1.971824   -0.057559
     65          9           0       17.472357    3.032924   -0.142478
     66          1           0      -21.709404    1.719815   -0.508803
     67          1           0      -21.047441   -0.724421   -0.604085
     68          1           0      -18.624553   -1.322170   -0.482150
     69          1           0      -19.878372    3.433199   -0.314241
     70          1           0      -16.075581    2.566784   -0.626749
     71          1           0      -13.593290    2.303976   -0.574993
     72          1           0      -14.140527   -1.918484    0.276727
     73          1           0      -12.137574   -1.913150   -1.136507
     74          1           0       -9.646538   -2.117272   -0.966043
     75          1           0      -11.808678    1.840760    0.989772
     76          1           0       -7.698337   -0.921004   -1.921163
     77          1           0       -5.224797   -1.041046   -1.830677
     78          1           0       -5.359013    0.310362    2.294412
     79          1           0       -3.477096   -1.248704    2.297582
     80          1           0       -0.972068   -1.261738    2.294102
     81          1           0       -3.307712    0.432406   -1.685611
     82          1           0        0.792936   -2.500818    1.061576
     83          1           0        3.268305   -2.601121    0.985106
     84          1           0        3.326659    1.363159   -0.787203
     85          1           0        5.109869   -2.764819   -0.616577
     86          1           0        7.597575   -2.767672   -0.677129
     87          1           0        5.293694    1.368483    0.641962
     88          1           0        9.153863    1.563055    0.073148
     89          1           0       11.623281    1.917968   -0.000653
     90          1           0       12.152345   -2.383720   -0.258906
     91          1           0       13.965665   -1.524719   -1.681170
     92          1           0       16.438501   -1.124656   -1.647478
     93          1           0       13.595501    1.550937    1.339576
     94          1           0       18.292322   -1.421354   -0.007000
     95          1           0       20.750171   -1.028377    0.092924
     96          1           0       21.637336    1.317950    0.108018
     97          1           0       20.023148    3.252902   -0.001255
 ---------------------------------------------------------------------

 The electronic state is 1-A.
 Alpha  occ. eigenvalues --  -24.40977 -24.40975 -24.39899 -24.39854 -24.39342
 Alpha  occ. eigenvalues --  -14.11747 -14.11569 -14.11557 -14.11549 -14.11249
 Alpha  occ. eigenvalues --  -10.10574 -10.10545 -10.10313 -10.10281 -10.09668
 Alpha  occ. eigenvalues --  -10.06747 -10.06674 -10.06600 -10.06597 -10.06263
 Alpha  occ. eigenvalues --  -10.05533 -10.05427 -10.05399 -10.05364 -10.05152
 Alpha  occ. eigenvalues --  -10.04524 -10.04504 -10.04450 -10.04360 -10.04253
 Alpha  occ. eigenvalues --  -10.04251 -10.04202 -10.04177 -10.04109 -10.04025
 Alpha  occ. eigenvalues --  -10.04000 -10.03954 -10.03933 -10.03810 -10.03804
 Alpha  occ. eigenvalues --  -10.03793 -10.03778 -10.03486 -10.03474 -10.03424
 Alpha  occ. eigenvalues --  -10.03422 -10.03237 -10.03113 -10.03046 -10.03024
 Alpha  occ. eigenvalues --  -10.02974 -10.02973 -10.02953 -10.02923 -10.02872
 Alpha  occ. eigenvalues --  -10.02829 -10.02822 -10.02818 -10.02808 -10.02567
 Alpha  occ. eigenvalues --  -10.02524 -10.02500 -10.02411 -10.02329 -10.02174
 Alpha  occ. eigenvalues --   -1.24475  -1.24468  -1.23750  -1.23711  -1.23159
 Alpha  occ. eigenvalues --   -0.99026  -0.98922  -0.98892  -0.98752  -0.98591
 Alpha  occ. eigenvalues --   -0.92241  -0.92038  -0.91804  -0.91673  -0.90738
 Alpha  occ. eigenvalues --   -0.87459  -0.87095  -0.86688  -0.86369  -0.85229
 Alpha  occ. eigenvalues --   -0.84497  -0.84271  -0.84020  -0.83448  -0.82860
 Alpha  occ. eigenvalues --   -0.81302  -0.80499  -0.80349  -0.80318  -0.80202
 Alpha  occ. eigenvalues --   -0.80005  -0.79616  -0.78809  -0.77635  -0.76715
 Alpha  occ. eigenvalues --   -0.72842  -0.71686  -0.70791  -0.70394  -0.70106
 Alpha  occ. eigenvalues --   -0.69856  -0.69418  -0.69159  -0.68953  -0.67846
 Alpha  occ. eigenvalues --   -0.67476  -0.67049  -0.66712  -0.66369  -0.66158
 Alpha  occ. eigenvalues --   -0.65727  -0.65546  -0.65005  -0.64684  -0.64524
 Alpha  occ. eigenvalues --   -0.61061  -0.60898  -0.60695  -0.60248  -0.59865
 Alpha  occ. eigenvalues --   -0.58567  -0.58037  -0.57614  -0.57520  -0.57246
 Alpha  occ. eigenvalues --   -0.57138  -0.56890  -0.56234  -0.55626  -0.55210
 Alpha  occ. eigenvalues --   -0.54952  -0.54605  -0.54348  -0.54246  -0.53804
 Alpha  occ. eigenvalues --   -0.53355  -0.53182  -0.53136  -0.52942  -0.52817
 Alpha  occ. eigenvalues --   -0.52382  -0.52268  -0.52015  -0.51555  -0.51422
 Alpha  occ. eigenvalues --   -0.51103  -0.50980  -0.50909  -0.50778  -0.50547
 Alpha  occ. eigenvalues --   -0.50008  -0.49762  -0.49521  -0.49467  -0.49397
 Alpha  occ. eigenvalues --   -0.48953  -0.48305  -0.48235  -0.47922  -0.47891
 Alpha  occ. eigenvalues --   -0.47623  -0.47577  -0.47183  -0.46801  -0.46729
 Alpha  occ. eigenvalues --   -0.46366  -0.46197  -0.45722  -0.45542  -0.45231
 Alpha  occ. eigenvalues --   -0.45076  -0.44795  -0.44613  -0.44537  -0.44264
 Alpha  occ. eigenvalues --   -0.44040  -0.43574  -0.43449  -0.43397  -0.43276
 Alpha  occ. eigenvalues --   -0.43034  -0.42838  -0.42711  -0.42475  -0.42118
 Alpha  occ. eigenvalues --   -0.42096  -0.40927  -0.40502  -0.40147  -0.40073
 Alpha  occ. eigenvalues --   -0.39862  -0.38622  -0.38261  -0.37224  -0.36419
 Alpha  occ. eigenvalues --   -0.36114  -0.35658  -0.35606  -0.35474  -0.35087
 Alpha  occ. eigenvalues --   -0.34265  -0.33185  -0.32498  -0.32426  -0.32374
 Alpha  occ. eigenvalues --   -0.32143  -0.31996  -0.31833  -0.31719  -0.31689
 Alpha  occ. eigenvalues --   -0.31526  -0.31266  -0.30799  -0.29921  -0.28826
 Alpha  occ. eigenvalues --   -0.28182
 Alpha virt. eigenvalues --   -0.02382  -0.01697  -0.00273   0.01159   0.02065
 Alpha virt. eigenvalues --    0.02340   0.02377   0.02567   0.02702   0.03085
 Alpha virt. eigenvalues --    0.04009   0.04059   0.04371   0.04504   0.04662

  Beta  occ. eigenvalues --  -24.40977 -24.40975 -24.39899 -24.39854 -24.39342
  Beta  occ. eigenvalues --  -14.11747 -14.11569 -14.11557 -14.11549 -14.11249
  Beta  occ. eigenvalues --  -10.10574 -10.10545 -10.10313 -10.10281 -10.09668
  Beta  occ. eigenvalues --  -10.06747 -10.06674 -10.06600 -10.06597 -10.06263
  Beta  occ. eigenvalues --  -10.05533 -10.05427 -10.05399 -10.05364 -10.05152
  Beta  occ. eigenvalues --  -10.04524 -10.04504 -10.04450 -10.04360 -10.04253
  Beta  occ. eigenvalues --  -10.04251 -10.04202 -10.04177 -10.04109 -10.04025
  Beta  occ. eigenvalues --  -10.04000 -10.03954 -10.03933 -10.03810 -10.03804
  Beta  occ. eigenvalues --  -10.03793 -10.03778 -10.03486 -10.03474 -10.03424
  Beta  occ. eigenvalues --  -10.03422 -10.03237 -10.03113 -10.03046 -10.03024
  Beta  occ. eigenvalues --  -10.02974 -10.02973 -10.02953 -10.02923 -10.02872
  Beta  occ. eigenvalues --  -10.02829 -10.02822 -10.02818 -10.02808 -10.02567
  Beta  occ. eigenvalues --  -10.02524 -10.02500 -10.02411 -10.02329 -10.02174
  Beta  occ. eigenvalues --   -1.24475  -1.24468  -1.23750  -1.23711  -1.23159
  Beta  occ. eigenvalues --   -0.99026  -0.98922  -0.98892  -0.98752  -0.98591
  Beta  occ. eigenvalues --   -0.92241  -0.92038  -0.91804  -0.91673  -0.90738
  Beta  occ. eigenvalues --   -0.87459  -0.87095  -0.86688  -0.86369  -0.85229
  Beta  occ. eigenvalues --   -0.84497  -0.84271  -0.84020  -0.83448  -0.82860
  Beta  occ. eigenvalues --   -0.81302  -0.80499  -0.80349  -0.80318  -0.80202
  Beta  occ. eigenvalues --   -0.80005  -0.79616  -0.78809  -0.77635  -0.76715
  Beta  occ. eigenvalues --   -0.72842  -0.71686  -0.70791  -0.70394  -0.70106
  Beta  occ. eigenvalues --   -0.69856  -0.69418  -0.69159  -0.68953  -0.67846
  Beta  occ. eigenvalues --   -0.67476  -0.67049  -0.66712  -0.66369  -0.66158
  Beta  occ. eigenvalues --   -0.65727  -0.65546  -0.65005  -0.64684  -0.64524
  Beta  occ. eigenvalues --   -0.61061  -0.60898  -0.60695  -0.60248  -0.59865
  Beta  occ. eigenvalues --   -0.58567  -0.58037  -0.57614  -0.57520  -0.57246
  Beta  occ. eigenvalues --   -0.57138  -0.56890  -0.56234  -0.55626  -0.55210
  Beta  occ. eigenvalues --   -0.54952  -0.54605  -0.54348  -0.54246  -0.53804
  Beta  occ. eigenvalues --   -0.53355  -0.53182  -0.53136  -0.52942  -0.52817
  Beta  occ. eigenvalues --   -0.52382  -0.52268  -0.52015  -0.51555  -0.51422
  Beta  occ. eigenvalues --   -0.51103  -0.50980  -0.50909  -0.50778  -0.50547
  Beta  occ. eigenvalues --   -0.50008  -0.49762  -0.49521  -0.49467  -0.49397
  Beta  occ. eigenvalues --   -0.48953  -0.48305  -0.48235  -0.47922  -0.47891
  Beta  occ. eigenvalues --   -0.47623  -0.47577  -0.47183  -0.46801  -0.46729
  Beta  occ. eigenvalues --   -0.46366  -0.46197  -0.45722  -0.45542  -0.45231
  Beta  occ. eigenvalues --   -0.45076  -0.44795  -0.44613  -0.44537  -0.44264
  Beta  occ. eigenvalues --   -0.44040  -0.43574  -0.43449  -0.43397  -0.43276
  Beta  occ. eigenvalues --   -0.43034  -0.42838  -0.42711  -0.42475  -0.42118
  Beta  occ. eigenvalues --   -0.42096  -0.40927  -0.40502  -0.40147  -0.40073
  Beta  occ. eigenvalues --   -0.39862  -0.38622  -0.38261  -0.37224  -0.36419
  Beta  occ. eigenvalues --   -0.36114  -0.35658  -0.35606  -0.35474  -0.35087
  Beta  occ. eigenvalues --   -0.34265  -0.33185  -0.32498  -0.32426  -0.32374
  Beta  occ. eigenvalues --   -0.32143  -0.31996  -0.31833  -0.31719  -0.31689
  Beta  occ. eigenvalues --   -0.31526  -0.31266  -0.30799  -0.29921  -0.28826
  Beta  occ. eigenvalues --   -0.28182
  Beta virt. eigenvalues --   -0.02382  -0.01697  -0.00273   0.01159   0.02065
  Beta virt. eigenvalues --    0.02340   0.02377   0.02567   0.02702   0.03085
  Beta virt. eigenvalues --    0.04009   0.04059   0.04371   0.04504   0.04662

 Mulliken charges and spin densities:
               1          2
     1  C   -0.029990   0.000000
     2  C    0.075988   0.000000
     3  C   -0.009251  -0.000000
     4  C    0.091430   0.000000
     5  N   -0.198199   0.000000
     6  C    0.093603  -0.000000
     7  C   -0.018404  -0.000000
     8  C    0.058218  -0.000000
     9  C    0.021302   0.000000
    10  C    0.028023  -0.000000
    11  C    0.013855  -0.000000
    12  C    0.061599   0.000000
    13  F   -0.132935  -0.000000
    14  C   -0.044069   0.000000
    15  C    0.068309  -0.000000
    16  C    0.018507   0.000000
    17  C    0.058021   0.000000
    18  N   -0.173693   0.000000
    19  C    0.088043  -0.000000
    20  C   -0.026012   0.000000
    21  C    0.029977   0.000000
    22  C    0.012450  -0.000000
    23  C    0.024029   0.000000
    24  C    0.001213   0.000000
    25  C    0.114635  -0.000000
    26  F   -0.107991   0.000000
    27  C   -0.044912  -0.000000
    28  C    0.069009   0.000000
    29  C    0.018749  -0.000000
    30  C    0.057456   0.000000
    31  N   -0.173792  -0.000000
    32  C    0.087775   0.000000
    33  C   -0.026095  -0.000000
    34  C    0.030483   0.000000
    35  C    0.012177   0.000000
    36  C    0.023782   0.000000
    37  C    0.001494   0.000000
    38  C    0.114770   0.000000
    39  F   -0.107402   0.000000
    40  C   -0.043280  -0.000000
    41  C    0.071816   0.000000
    42  C    0.002881  -0.000000
    43  C    0.097585   0.000000
    44  N   -0.197313  -0.000000
    45  C    0.096505  -0.000000
    46  C   -0.019032  -0.000000
    47  C    0.058504   0.000000
    48  C    0.021594  -0.000000
    49  C    0.028126   0.000000
    50  C    0.015051  -0.000000
    51  C    0.057883   0.000000
    52  F   -0.133311   0.000000
    53  C   -0.043027  -0.000000
    54  C    0.066590   0.000000
    55  C    0.019300  -0.000000
    56  C    0.060905  -0.000000
    57  N   -0.173379   0.000000
    58  C    0.087406   0.000000
    59  C   -0.033379  -0.000000
    60  C    0.019967   0.000000
    61  C    0.027072  -0.000000
    62  C    0.032762   0.000000
    63  C    0.011187   0.000000
    64  C    0.106832  -0.000000
    65  F   -0.111629  -0.000000
    66  H   -0.007978  -0.000000
    67  H   -0.004509  -0.000000
    68  H   -0.005871  -0.000000
    69  H    0.003247   0.000000
    70  H   -0.012890  -0.000000
    71  H   -0.018484  -0.000000
    72  H   -0.010349  -0.000000
    73  H   -0.012953   0.000000
    74  H   -0.010325  -0.000000
    75  H    0.004066   0.000000
    76  H   -0.016051  -0.000000
    77  H   -0.019355  -0.000000
    78  H   -0.009224   0.000000
    79  H   -0.011902   0.000000
    80  H   -0.009523  -0.000000
    81  H    0.002930   0.000000
    82  H   -0.017106   0.000000
    83  H   -0.022055  -0.000000
    84  H   -0.006833  -0.000000
    85  H   -0.014018   0.000000
    86  H   -0.006930  -0.000000
    87  H    0.000744  -0.000000
    88  H   -0.012403   0.000000
    89  H   -0.017223  -0.000000
    90  H   -0.010717  -0.000000
    91  H   -0.013681   0.000000
    92  H   -0.010581   0.000000
    93  H    0.002873   0.000000
    94  H   -0.019107   0.000000
    95  H   -0.013953   0.000000
    96  H   -0.008370   0.000000
    97  H   -0.001237   0.000000
 Sum of Mulliken charges =  -0.00000  -0.00000

 Dipole moment (field-independent basis, Debye):
    X=             -2.6294    Y=             -5.3286    Z=             -1.5929  Tot=              6.1519
 Quadrupole moment (field-independent basis, Debye-Ang):
   XX=           -252.0331   YY=           -352.9807   ZZ=           -367.8870
   XY=            -13.6738   XZ=              1.2425   YZ=              1.1914

 Normal termination of Gaussian 16 at Fri Jul 24 00:40:07 2020.
