 Gaussian 16, Revision A.03,
 Gaussian 16:  EM64L-G16RevA.03 25-Dec-2016

 ---------------------------------------------------------------
 #P uLC-wPBE/cc-pVDZ iop(3/107=0052000000, 3/108=0052000000) opt
 ---------------------------------------------------------------

 -------------
 H44 C77 N7 F7
 -------------
 Symbolic Z-matrix:
 Charge =  0 Multiplicity = 1

 SCF Done:  E(ULC-wPBE) =  -4038.73971163     A.U. after   16 cycles
 SCF Done:  E(ULC-wPBE) =  -4038.84309447     A.U. after   16 cycles
 SCF Done:  E(ULC-wPBE) =  -4038.94332722     A.U. after   15 cycles
 SCF Done:  E(ULC-wPBE) =  -4038.97271012     A.U. after   14 cycles
 SCF Done:  E(ULC-wPBE) =  -4038.98428736     A.U. after   19 cycles
 SCF Done:  E(ULC-wPBE) =  -4038.99028281     A.U. after   17 cycles
 SCF Done:  E(ULC-wPBE) =  -4038.99015662     A.U. after   19 cycles
 SCF Done:  E(ULC-wPBE) =  -4038.99558127     A.U. after   17 cycles
 SCF Done:  E(ULC-wPBE) =  -4038.99996911     A.U. after   16 cycles
 SCF Done:  E(ULC-wPBE) =  -4039.00339557     A.U. after   19 cycles
 SCF Done:  E(ULC-wPBE) =  -4039.00763707     A.U. after   11 cycles
 SCF Done:  E(ULC-wPBE) =  -4039.00763687     A.U. after   13 cycles
 SCF Done:  E(ULC-wPBE) =  -4039.00763768     A.U. after   11 cycles
 SCF Done:  E(ULC-wPBE) =  -4039.00763863     A.U. after   12 cycles
 SCF Done:  E(ULC-wPBE) =  -4039.00763874     A.U. after   11 cycles
 SCF Done:  E(ULC-wPBE) =  -4039.00763866     A.U. after   12 cycles
 SCF Done:  E(ULC-wPBE) =  -4039.00763842     A.U. after    8 cycles
 SCF Done:  E(ULC-wPBE) =  -4039.00763883     A.U. after   11 cycles
 SCF Done:  E(ULC-wPBE) =  -4039.00763879     A.U. after    6 cycles
 SCF Done:  E(ULC-wPBE) =  -4039.00763881     A.U. after    6 cycles
 Optimization completed on the basis of negligible forces.
    -- Stationary point found.

                         Standard orientation:
 ---------------------------------------------------------------------
 Center     Atomic      Atomic             Coordinates (Angstroms)
 Number     Number       Type             X           Y           Z
 ---------------------------------------------------------------------
      1          6           0      -29.259219   -2.165301    0.426658
      2          6           0      -28.544069   -2.792824   -0.600520
      3          6           0      -27.169448   -2.556803   -0.723568
      4          6           0      -26.534648   -1.687794    0.195344
      5          7           0      -27.231034   -1.083526    1.192646
      6          6           0      -28.545686   -1.322199    1.293367
      7          6           0      -25.078867   -1.366458    0.166129
      8          6           0      -24.533277   -0.553992    1.190908
      9          6           0      -23.184211   -0.206633    1.235697
     10          6           0      -22.282889   -0.657133    0.241984
     11          6           0      -22.803001   -1.465012   -0.789964
     12          6           0      -24.157280   -1.799083   -0.811866
     13          9           0      -24.565288   -2.571550   -1.861969
     14          6           0      -20.848302   -0.300560    0.279114
     15          6           0      -20.386211    0.930642    0.787095
     16          6           0      -19.019873    1.219888    0.799688
     17          6           0      -18.103354    0.267352    0.294916
     18          7           0      -18.537188   -0.927296   -0.185390
     19          6           0      -19.847062   -1.187108   -0.185809
     20          6           0      -16.629626    0.467714    0.244402
     21          6           0      -15.808470   -0.576998   -0.248808
     22          6           0      -14.421266   -0.468072   -0.328950
     23          6           0      -13.758881    0.712915    0.083741
     24          6           0      -14.555296    1.767493    0.575478
     25          6           0      -15.941474    1.633563    0.646989
     26          9           0      -16.622207    2.707758    1.145724
     27          6           0      -12.288241    0.844474    0.005438
     28          6           0      -11.645395    2.072014   -0.254128
     29          6           0      -10.252072    2.138108   -0.321330
     30          6           0       -9.491158    0.960512   -0.130037
     31          7           0      -10.099826   -0.224755    0.135477
     32          6           0      -11.433148   -0.267417    0.199319
     33          6           0       -8.005439    0.905724   -0.188302
     34          6           0       -7.347933   -0.313134    0.113974
     35          6           0       -5.961163   -0.445939    0.079039
     36          6           0       -5.132684    0.648450   -0.266541
     37          6           0       -5.764384    1.871278   -0.573951
     38          6           0       -7.154216    1.979223   -0.530779
     39          9           0       -7.671121    3.199540   -0.860982
     40          6           0       -3.659949    0.522775   -0.302735
     41          6           0       -3.010192   -0.674774   -0.665202
     42          6           0       -1.615382   -0.742430   -0.683274
     43          6           0       -0.859593    0.403020   -0.338214
     44          7           0       -1.475863    1.558420    0.024471
     45          6           0       -2.810412    1.602413    0.039831
     46          6           0        0.627469    0.454780   -0.333106
     47          6           0        1.274344    1.647590    0.077089
     48          6           0        2.661545    1.776745    0.106530
     49          6           0        3.501635    0.704207   -0.277375
     50          6           0        2.881028   -0.493006   -0.689855
     51          6           0        1.490376   -0.597556   -0.710557
     52          9           0        0.986086   -1.792343   -1.138858
     53          6           0        4.974802    0.826054   -0.246152
     54          6           0        5.640230    2.041363   -0.506625
     55          6           0        7.034723    2.104689   -0.463874
     56          6           0        7.774396    0.937199   -0.160240
     57          7           0        7.142376   -0.236182    0.104039
     58          6           0        5.808283   -0.276147    0.062254
     59          6           0        9.260070    0.879429   -0.098236
     60          6           0        9.888526   -0.341132    0.254430
     61          6           0       11.273436   -0.477908    0.332858
     62          6           0       12.129082    0.615793    0.059026
     63          6           0       11.526877    1.840918   -0.293474
     64          6           0       10.138660    1.952550   -0.364849
     65          9           0        9.653825    3.177554   -0.726502
     66          6           0       13.600926    0.488264    0.137488
     67          6           0       14.431328    1.551462    0.551121
     68          6           0       15.814054    1.368711    0.606501
     69          6           0       16.362393    0.117159    0.244775
     70          7           0       15.581801   -0.915731   -0.156662
     71          6           0       14.258230   -0.718385   -0.204196
     72          6           0       17.829609   -0.108002    0.278308
     73          6           0       18.735893    0.912026   -0.089957
     74          6           0       20.119966    0.720744   -0.072952
     75          6           0       20.672252   -0.518758    0.324251
     76          6           0       19.782526   -1.546189    0.703373
     77          6           0       18.403152   -1.336015    0.676567
     78          9           0       17.610502   -2.353776    1.079846
     79          6           0       22.136490   -0.736842    0.344818
     80          6           0       22.765179   -1.558502    1.303765
     81          6           0       24.151337   -1.722214    1.272269
     82          6           0       24.906066   -1.050337    0.284547
     83          7           0       24.318567   -0.273428   -0.657417
     84          6           0       22.986818   -0.137925   -0.615407
     85          6           0       26.388015   -1.160489    0.254753
     86          6           0       27.138693   -1.185355    1.452197
     87          6           0       28.535624   -1.283410    1.446616
     88          6           0       29.223692   -1.365210    0.225928
     89          6           0       28.509045   -1.350785   -0.979582
     90          6           0       27.114556   -1.248379   -0.953266
     91          9           0       26.459117   -1.275560   -2.135411
     92          1           0      -30.338983   -2.321875    0.558531
     93          1           0      -29.049635   -3.466730   -1.307610
     94          1           0      -26.594667   -3.041060   -1.519075
     95          1           0      -29.063485   -0.806440    2.120128
     96          1           0      -25.234217   -0.210746    1.963138
     97          1           0      -22.813516    0.401535    2.072854
     98          1           0      -22.173669   -1.824523   -1.615042
     99          1           0      -21.102790    1.680737    1.152576
    100          1           0      -18.667352    2.180684    1.187252
    101          1           0      -20.133548   -2.184431   -0.561564
    102          1           0      -16.325819   -1.487451   -0.578579
    103          1           0      -13.840601   -1.301613   -0.747963
    104          1           0      -14.112021    2.704203    0.939498
    105          1           0      -12.240059    2.980563   -0.430252
    106          1           0       -9.758350    3.092274   -0.529948
    107          1           0      -11.866204   -1.251742    0.446198
    108          1           0       -7.992417   -1.158828    0.387451
    109          1           0       -5.506849   -1.408343    0.353604
    110          1           0       -5.191559    2.755409   -0.884085
    111          1           0       -3.599587   -1.555116   -0.960645
    112          1           0       -1.116221   -1.672104   -0.973345
    113          1           0       -3.250435    2.558694    0.371255
    114          1           0        0.620597    2.475170    0.382134
    115          1           0        3.106002    2.716913    0.462309
    116          1           0        3.464616   -1.357666   -1.033061
    117          1           0        5.064303    2.940497   -0.770420
    118          1           0        7.546490    3.048566   -0.675443
    119          1           0        5.353994   -1.249673    0.314858
    120          1           0        9.222175   -1.185316    0.474976
    121          1           0       11.701623   -1.441595    0.641731
    122          1           0       12.125584    2.725765   -0.548711
    123          1           0       13.989763    2.509236    0.863860
    124          1           0       16.465491    2.178990    0.962869
    125          1           0       13.665356   -1.575364   -0.566926
    126          1           0       18.331684    1.880045   -0.419676
    127          1           0       20.783856    1.550033   -0.353184
    128          1           0       20.145808   -2.537178    1.008090
    129          1           0       22.169000   -2.056719    2.082566
    130          1           0       24.649754   -2.374364    2.003239
    131          1           0       22.548328    0.478845   -1.418647
    132          1           0       26.602877   -1.094775    2.408432
    133          1           0       29.088210   -1.286048    2.396453
    134          1           0       30.320316   -1.440391    0.207967
    135          1           0       29.010754   -1.425373   -1.953912
 ---------------------------------------------------------------------

 Alpha  occ. eigenvalues --   -0.24749  -0.24682  -0.24599  -0.24332  -0.24099
 Alpha  occ. eigenvalues --   -0.23864  -0.23200  -0.22614  -0.22135
 Alpha virt. eigenvalues --   -0.08298  -0.07627  -0.06796  -0.05992  -0.05121
 Alpha virt. eigenvalues --   -0.04306  -0.03907  -0.03767  -0.03648  -0.03554
 Alpha virt. eigenvalues --   -0.03379  -0.03320  -0.03228  -0.02732  -0.01726

  Beta  occ. eigenvalues --  -24.32836 -24.32824 -24.32803 -24.32800 -24.32697
  Beta  occ. eigenvalues --  -24.31506 -24.31088 -14.03448 -14.03446 -14.03417
  Beta  occ. eigenvalues --  -14.03405 -14.03136 -14.03039 -14.02855 -10.02229
  Beta  occ. eigenvalues --  -10.02225 -10.02206 -10.02180 -10.02103 -10.01750
  Beta  occ. eigenvalues --  -10.01277  -9.98357  -9.98352  -9.98326  -9.98319
  Beta  occ. eigenvalues --   -9.98194  -9.98064  -9.97812  -9.97229  -9.97211
  Beta  occ. eigenvalues --   -9.97192  -9.97186  -9.96938  -9.96913  -9.96747
  Beta  occ. eigenvalues --   -9.96151  -9.96141  -9.96127  -9.96062  -9.96046
  Beta  occ. eigenvalues --   -9.95970  -9.95824  -9.95815  -9.95783  -9.95773
  Beta  occ. eigenvalues --   -9.95748  -9.95684  -9.95669  -9.95663  -9.95654
  Beta  occ. eigenvalues --   -9.95621  -9.95609  -9.95588  -9.95581  -9.95564
  Beta  occ. eigenvalues --   -9.95555  -9.95522  -9.95503  -9.95459  -9.95389
  Beta  occ. eigenvalues --   -9.94997  -9.94981  -9.94936  -9.94782  -9.94767
  Beta  occ. eigenvalues --   -9.94755  -9.94740  -9.94728  -9.94666  -9.94666
  Beta  occ. eigenvalues --   -9.94647  -9.94637  -9.94619  -9.94610  -9.94498
  Beta  occ. eigenvalues --   -9.94474  -9.94467  -9.94421  -9.94314  -9.94301
  Beta  occ. eigenvalues --   -9.94282  -9.94268  -9.94248  -9.94228  -9.94213
  Beta  occ. eigenvalues --   -9.94201  -9.94180  -9.94146  -9.94115  -9.94025
  Beta  occ. eigenvalues --   -9.93865  -1.15815  -1.15809  -1.15790  -1.15774
  Beta  occ. eigenvalues --   -1.15681  -1.14869  -1.14434  -0.89957  -0.89934
  Beta  occ. eigenvalues --   -0.89906  -0.89899  -0.89618  -0.89556  -0.89421
  Beta  occ. eigenvalues --   -0.83113  -0.82988  -0.82846  -0.82697  -0.82552
  Beta  occ. eigenvalues --   -0.82465  -0.81612  -0.78574  -0.78308  -0.77994
  Beta  occ. eigenvalues --   -0.77717  -0.77480  -0.77300  -0.76227  -0.75484
  Beta  occ. eigenvalues --   -0.75418  -0.75282  -0.75084  -0.74766  -0.74324
  Beta  occ. eigenvalues --   -0.73909  -0.72661  -0.71976  -0.71649  -0.71565
  Beta  occ. eigenvalues --   -0.71556  -0.71496  -0.71405  -0.71367  -0.70920
  Beta  occ. eigenvalues --   -0.70798  -0.70100  -0.69256  -0.68450  -0.67895
  Beta  occ. eigenvalues --   -0.64567  -0.63867  -0.63114  -0.62502  -0.62081
  Beta  occ. eigenvalues --   -0.61848  -0.61756  -0.61627  -0.61158  -0.61082
  Beta  occ. eigenvalues --   -0.60699  -0.60568  -0.60036  -0.59549  -0.59125
  Beta  occ. eigenvalues --   -0.58829  -0.58571  -0.58426  -0.58071  -0.57802
  Beta  occ. eigenvalues --   -0.57694  -0.57406  -0.57287  -0.56917  -0.56771
  Beta  occ. eigenvalues --   -0.56622  -0.56469  -0.56223  -0.52823  -0.52771
  Beta  occ. eigenvalues --   -0.52659  -0.52480  -0.52396  -0.52279  -0.51644
  Beta  occ. eigenvalues --   -0.50337  -0.50148  -0.49829  -0.49798  -0.49666
  Beta  occ. eigenvalues --   -0.49577  -0.49407  -0.49311  -0.49119  -0.48736
  Beta  occ. eigenvalues --   -0.48330  -0.47919  -0.47382  -0.47188  -0.47100
  Beta  occ. eigenvalues --   -0.46881  -0.46749  -0.46485  -0.46226  -0.45965
  Beta  occ. eigenvalues --   -0.45789  -0.45514  -0.45481  -0.45211  -0.45063
  Beta  occ. eigenvalues --   -0.44947  -0.44792  -0.44772  -0.44367  -0.44323
  Beta  occ. eigenvalues --   -0.44272  -0.44252  -0.44221  -0.44167  -0.43464
  Beta  occ. eigenvalues --   -0.43307  -0.43248  -0.43160  -0.42994  -0.42837
  Beta  occ. eigenvalues --   -0.42779  -0.42650  -0.42268  -0.42012  -0.41941
  Beta  occ. eigenvalues --   -0.41805  -0.41783  -0.41653  -0.41601  -0.41526
  Beta  occ. eigenvalues --   -0.40949  -0.40457  -0.40211  -0.40154  -0.40097
  Beta  occ. eigenvalues --   -0.40093  -0.39933  -0.39721  -0.39684  -0.39563
  Beta  occ. eigenvalues --   -0.39441  -0.39318  -0.38991  -0.38984  -0.38808
  Beta  occ. eigenvalues --   -0.38520  -0.38361  -0.38220  -0.37840  -0.37785
  Beta  occ. eigenvalues --   -0.37701  -0.37475  -0.37421  -0.37179  -0.36891
  Beta  occ. eigenvalues --   -0.36646  -0.36627  -0.36591  -0.36465  -0.36369
  Beta  occ. eigenvalues --   -0.36214  -0.35852  -0.35738  -0.35649  -0.35504
  Beta  occ. eigenvalues --   -0.35353  -0.35316  -0.35175  -0.35068  -0.34914
  Beta  occ. eigenvalues --   -0.34840  -0.34792  -0.34050  -0.33626  -0.33333
  Beta  occ. eigenvalues --   -0.33273  -0.33043  -0.32896  -0.32773  -0.32472
  Beta  occ. eigenvalues --   -0.31960  -0.31283  -0.30633  -0.30072  -0.29625
  Beta  occ. eigenvalues --   -0.29390  -0.29108  -0.29066  -0.28996  -0.28855
  Beta  occ. eigenvalues --   -0.28706  -0.28463  -0.27909  -0.26784  -0.26301
  Beta  occ. eigenvalues --   -0.26069  -0.26034  -0.25981  -0.25968  -0.25743
  Beta  occ. eigenvalues --   -0.25636  -0.25283  -0.25129  -0.25019  -0.24954
  Beta  occ. eigenvalues --   -0.24749  -0.24682  -0.24599  -0.24332  -0.24099
  Beta  occ. eigenvalues --   -0.23864  -0.23200  -0.22614  -0.22135
  Beta virt. eigenvalues --   -0.08298  -0.07627  -0.06796  -0.05992  -0.05121
  Beta virt. eigenvalues --   -0.04306  -0.03907  -0.03767  -0.03648  -0.03554
  Beta virt. eigenvalues --   -0.03379  -0.03320  -0.03228  -0.02732  -0.01726

 Mulliken charges and spin densities:
               1          2
     1  C   -0.020452   0.000000
     2  C    0.081150   0.000000
     3  C   -0.002082  -0.000000
     4  C    0.092951  -0.000000
     5  N   -0.198783   0.000000
     6  C    0.092335  -0.000000
     7  C    0.003747   0.000000
     8  C    0.060371  -0.000000
     9  C    0.019153  -0.000000
    10  C    0.048405   0.000000
    11  C    0.013583  -0.000000
    12  C    0.044358   0.000000
    13  F   -0.131987  -0.000000
    14  C   -0.022414   0.000000
    15  C    0.067900  -0.000000
    16  C    0.011548   0.000000
    17  C    0.097250  -0.000000
    18  N   -0.198090  -0.000000
    19  C    0.088719  -0.000000
    20  C    0.003479   0.000000
    21  C    0.060358   0.000000
    22  C    0.018627  -0.000000
    23  C    0.048404   0.000000
    24  C    0.014734   0.000000
    25  C    0.042470  -0.000000
    26  F   -0.131745  -0.000000
    27  C   -0.022533   0.000000
    28  C    0.067405  -0.000000
    29  C    0.012204   0.000000
    30  C    0.096875  -0.000000
    31  N   -0.197992  -0.000000
    32  C    0.089048  -0.000000
    33  C    0.004099   0.000000
    34  C    0.060432   0.000000
    35  C    0.019147  -0.000000
    36  C    0.048755   0.000000
    37  C    0.013988   0.000000
    38  C    0.042247  -0.000000
    39  F   -0.131351  -0.000000
    40  C   -0.022296   0.000000
    41  C    0.067677  -0.000000
    42  C    0.011933   0.000000
    43  C    0.097179  -0.000000
    44  N   -0.198162   0.000000
    45  C    0.088624  -0.000000
    46  C    0.003864   0.000000
    47  C    0.060649   0.000000
    48  C    0.019468   0.000000
    49  C    0.048410  -0.000000
    50  C    0.014406  -0.000000
    51  C    0.041851  -0.000000
    52  F   -0.131162   0.000000
    53  C   -0.022445   0.000000
    54  C    0.067842  -0.000000
    55  C    0.011707  -0.000000
    56  C    0.097300   0.000000
    57  N   -0.197783   0.000000
    58  C    0.088841  -0.000000
    59  C    0.003779  -0.000000
    60  C    0.060111  -0.000000
    61  C    0.019531   0.000000
    62  C    0.047546  -0.000000
    63  C    0.015252   0.000000
    64  C    0.041925   0.000000
    65  F   -0.132148  -0.000000
    66  C   -0.020886   0.000000
    67  C    0.059894  -0.000000
    68  C    0.025293   0.000000
    69  C    0.061586  -0.000000
    70  N   -0.177082   0.000000
    71  C    0.080342   0.000000
    72  C   -0.000264   0.000000
    73  C    0.019952  -0.000000
    74  C    0.008537   0.000000
    75  C    0.044264   0.000000
    76  C    0.000879   0.000000
    77  C    0.105619  -0.000000
    78  F   -0.106178  -0.000000
    79  C   -0.024761  -0.000000
    80  C    0.063189   0.000000
    81  C    0.025634  -0.000000
    82  C    0.062113   0.000000
    83  N   -0.175877  -0.000000
    84  C    0.078986  -0.000000
    85  C   -0.009120  -0.000000
    86  C    0.012480   0.000000
    87  C    0.032602   0.000000
    88  C    0.037790  -0.000000
    89  C    0.019532  -0.000000
    90  C    0.098698   0.000000
    91  F   -0.108229  -0.000000
    92  H   -0.014592  -0.000000
    93  H   -0.010318  -0.000000
    94  H   -0.014114  -0.000000
    95  H   -0.001653  -0.000000
    96  H   -0.022999   0.000000
    97  H   -0.027450  -0.000000
    98  H   -0.014696  -0.000000
    99  H   -0.019484   0.000000
   100  H   -0.015895  -0.000000
   101  H   -0.005029   0.000000
   102  H   -0.021877  -0.000000
   103  H   -0.024551  -0.000000
   104  H   -0.016668  -0.000000
   105  H   -0.020262   0.000000
   106  H   -0.015512   0.000000
   107  H   -0.003934  -0.000000
   108  H   -0.022110  -0.000000
   109  H   -0.026724  -0.000000
   110  H   -0.014217  -0.000000
   111  H   -0.019176   0.000000
   112  H   -0.015309   0.000000
   113  H   -0.005151  -0.000000
   114  H   -0.022453   0.000000
   115  H   -0.027046   0.000000
   116  H   -0.013881   0.000000
   117  H   -0.019569   0.000000
   118  H   -0.015931  -0.000000
   119  H   -0.004834   0.000000
   120  H   -0.021531   0.000000
   121  H   -0.023002   0.000000
   122  H   -0.017478  -0.000000
   123  H   -0.019749   0.000000
   124  H   -0.017370  -0.000000
   125  H   -0.001576  -0.000000
   126  H   -0.022320   0.000000
   127  H   -0.025195   0.000000
   128  H   -0.017109   0.000000
   129  H   -0.019621  -0.000000
   130  H   -0.017071  -0.000000
   131  H   -0.002897  -0.000000
   132  H   -0.024366   0.000000
   133  H   -0.019226   0.000000
   134  H   -0.013873   0.000000
   135  H   -0.007384   0.000000
 Sum of Mulliken charges =  -0.00000  -0.00000

 Dipole moment (field-independent basis, Debye):
    X=             -3.2933    Y=              1.4709    Z=              1.9040  Tot=              4.0785
 Quadrupole moment (field-independent basis, Debye-Ang):
   XX=           -351.2607   YY=           -490.9135   ZZ=           -515.2637
   XY=             23.9975   XZ=             55.3966   YZ=              1.3836

 Normal termination of Gaussian 16 at Fri Jul 24 10:20:58 2020.
