 Gaussian 16, Revision A.03,
 Gaussian 16:  EM64L-G16RevA.03 25-Dec-2016

 ---------------------------------------------------------------
 #P uLC-wPBE/cc-pVDZ iop(3/107=0265100000, 3/108=0265100000) opt
 ---------------------------------------------------------------

 ---------------
 H9 C11 S1 O1 F1
 ---------------
 Symbolic Z-matrix:
 Charge =  0 Multiplicity = 1

 SCF Done:  E(ULC-wPBE) =  -997.200468332     A.U. after   16 cycles
 SCF Done:  E(ULC-wPBE) =  -997.237381792     A.U. after   14 cycles
 SCF Done:  E(ULC-wPBE) =  -997.249265236     A.U. after   14 cycles
 SCF Done:  E(ULC-wPBE) =  -997.249919609     A.U. after   13 cycles
 SCF Done:  E(ULC-wPBE) =  -997.250156712     A.U. after   13 cycles
 SCF Done:  E(ULC-wPBE) =  -997.250301614     A.U. after   15 cycles
 SCF Done:  E(ULC-wPBE) =  -997.250467778     A.U. after   12 cycles
 SCF Done:  E(ULC-wPBE) =  -997.250491880     A.U. after   13 cycles
 SCF Done:  E(ULC-wPBE) =  -997.250519054     A.U. after   12 cycles
 SCF Done:  E(ULC-wPBE) =  -997.250521850     A.U. after   11 cycles
 SCF Done:  E(ULC-wPBE) =  -997.250523319     A.U. after   10 cycles
 SCF Done:  E(ULC-wPBE) =  -997.250523767     A.U. after    9 cycles
 SCF Done:  E(ULC-wPBE) =  -997.250523985     A.U. after    8 cycles
 SCF Done:  E(ULC-wPBE) =  -997.250524085     A.U. after    8 cycles
 Optimization completed.
    -- Stationary point found.

                         Standard orientation:
 ---------------------------------------------------------------------
 Center     Atomic      Atomic             Coordinates (Angstroms)
 Number     Number       Type             X           Y           Z
 ---------------------------------------------------------------------
      1          6           0        3.098796   -1.120374    0.013619
      2          6           0        2.096258   -2.073717    0.143024
      3          6           0        0.776492   -1.635879    0.182688
      4          9           0       -0.188568   -2.574098    0.303120
      5          6           0        0.393167   -0.292921    0.100831
      6          6           0        1.445576    0.651175   -0.030174
      7          8           0        1.066940    1.954865   -0.108668
      8          6           0        2.072408    2.930317   -0.320181
      9          6           0        2.782207    0.236760   -0.074072
     10          6           0       -1.025836    0.119096    0.147452
     11          6           0       -1.570973    1.237272    0.740973
     12          6           0       -2.979923    1.341547    0.562987
     13          6           0       -3.491741    0.307207   -0.176373
     14         16           0       -2.270648   -0.808052   -0.642773
     15          1           0        4.148582   -1.432447   -0.020331
     16          1           0        2.304631   -3.145058    0.215838
     17          1           0        2.626713    2.747969   -1.261334
     18          1           0        2.789350    2.971154    0.523171
     19          1           0        1.545387    3.894242   -0.392427
     20          1           0        3.586150    0.969786   -0.176532
     21          1           0       -0.966828    1.965355    1.285439
     22          1           0       -3.589505    2.154262    0.968597
     23          1           0       -4.531105    0.128629   -0.461424
 ---------------------------------------------------------------------

 The electronic state is 1-A.
 Alpha  occ. eigenvalues --  -88.23704 -24.43063 -18.95351 -10.13178 -10.12024
 Alpha  occ. eigenvalues --  -10.10856 -10.07680 -10.06931 -10.06569 -10.06282
 Alpha  occ. eigenvalues --  -10.05265 -10.05028 -10.04352 -10.04200  -7.84196
 Alpha  occ. eigenvalues --   -5.86099  -5.85599  -5.85241  -1.27105  -1.14322
 Alpha  occ. eigenvalues --   -0.96023  -0.93925  -0.86342  -0.83519  -0.80973
 Alpha  occ. eigenvalues --   -0.79822  -0.78120  -0.70860  -0.68899  -0.64771
 Alpha  occ. eigenvalues --   -0.63539  -0.61823  -0.59252  -0.58865  -0.57012
 Alpha  occ. eigenvalues --   -0.56235  -0.55394  -0.54103  -0.52408  -0.49789
 Alpha  occ. eigenvalues --   -0.48095  -0.47766  -0.47228  -0.46565  -0.45899
 Alpha  occ. eigenvalues --   -0.44867  -0.44204  -0.41473  -0.40987  -0.40819
 Alpha  occ. eigenvalues --   -0.35414  -0.32399  -0.31374  -0.28733
 Alpha virt. eigenvalues --    0.03037   0.07261   0.08596   0.12634   0.13451
 Alpha virt. eigenvalues --    0.14233   0.14654   0.16442   0.18055   0.18505
 Alpha virt. eigenvalues --    0.19125   0.20446   0.20572   0.21781   0.22692

  Beta  occ. eigenvalues --  -88.23704 -24.43063 -18.95351 -10.13178 -10.12024
  Beta  occ. eigenvalues --  -10.10856 -10.07680 -10.06931 -10.06569 -10.06282
  Beta  occ. eigenvalues --  -10.05265 -10.05028 -10.04352 -10.04200  -7.84196
  Beta  occ. eigenvalues --   -5.86099  -5.85599  -5.85241  -1.27105  -1.14322
  Beta  occ. eigenvalues --   -0.96023  -0.93925  -0.86342  -0.83519  -0.80973
  Beta  occ. eigenvalues --   -0.79822  -0.78120  -0.70860  -0.68899  -0.64771
  Beta  occ. eigenvalues --   -0.63539  -0.61823  -0.59252  -0.58865  -0.57012
  Beta  occ. eigenvalues --   -0.56235  -0.55394  -0.54103  -0.52408  -0.49789
  Beta  occ. eigenvalues --   -0.48095  -0.47766  -0.47228  -0.46565  -0.45899
  Beta  occ. eigenvalues --   -0.44867  -0.44204  -0.41473  -0.40987  -0.40819
  Beta  occ. eigenvalues --   -0.35414  -0.32399  -0.31374  -0.28733
  Beta virt. eigenvalues --    0.03037   0.07261   0.08596   0.12634   0.13451
  Beta virt. eigenvalues --    0.14233   0.14654   0.16442   0.18055   0.18505
  Beta virt. eigenvalues --    0.19125   0.20446   0.20572   0.21781   0.22692

 Mulliken charges and spin densities:
               1          2
     1  C    0.032896   0.000000
     2  C    0.009333   0.000000
     3  C    0.099292  -0.000000
     4  F   -0.123215   0.000000
     5  C   -0.018795   0.000000
     6  C    0.100291   0.000000
     7  O   -0.239476   0.000000
     8  C    0.058130   0.000000
     9  C   -0.037125  -0.000000
    10  C   -0.136153  -0.000000
    11  C    0.034892   0.000000
    12  C    0.053564  -0.000000
    13  C   -0.134861   0.000000
    14  S    0.166155  -0.000000
    15  H   -0.004586   0.000000
    16  H   -0.000883   0.000000
    17  H    0.048437  -0.000000
    18  H    0.047323   0.000000
    19  H    0.055723   0.000000
    20  H   -0.008091  -0.000000
    21  H   -0.015625   0.000000
    22  H   -0.011018  -0.000000
    23  H    0.023790   0.000000
 Sum of Mulliken charges =  -0.00000  -0.00000

 Dipole moment (field-independent basis, Debye):
    X=              2.1696    Y=              2.1970    Z=             -0.1408  Tot=              3.0910
 Quadrupole moment (field-independent basis, Debye-Ang):
   XX=            -73.0292   YY=            -79.1968   ZZ=            -89.7456
   XY=              1.4145   XZ=             -0.2936   YZ=              1.2729

 Normal termination of Gaussian 16 at Thu Jul 23 13:26:00 2020.
