 Gaussian 16, Revision A.03,
 Gaussian 16:  EM64L-G16RevA.03 25-Dec-2016

 ---------------------------------------------------------------
 #P uLC-wPBE/cc-pVDZ iop(3/107=0417400000, 3/108=0417400000) opt
 ---------------------------------------------------------------

 ----------------
 H29 C33 S3 N3 O6
 ----------------
 Symbolic Z-matrix:
 Charge =  0 Multiplicity = 1

 SCF Done:  E(ULC-wPBE) =  -3083.37348647     A.U. after   18 cycles
 SCF Done:  E(ULC-wPBE) =  -3083.45500351     A.U. after   14 cycles
 SCF Done:  E(ULC-wPBE) =  -3083.51547907     A.U. after   17 cycles
 SCF Done:  E(ULC-wPBE) =  -3083.52857931     A.U. after   14 cycles
 SCF Done:  E(ULC-wPBE) =  -3083.53222652     A.U. after   14 cycles
 SCF Done:  E(ULC-wPBE) =  -3083.53369756     A.U. after   14 cycles
 SCF Done:  E(ULC-wPBE) =  -3083.53653314     A.U. after   14 cycles
 SCF Done:  E(ULC-wPBE) =  -3083.53840847     A.U. after   13 cycles
 SCF Done:  E(ULC-wPBE) =  -3083.53933355     A.U. after   12 cycles
 SCF Done:  E(ULC-wPBE) =  -3083.54003980     A.U. after   13 cycles
 SCF Done:  E(ULC-wPBE) =  -3083.54052908     A.U. after   11 cycles
 SCF Done:  E(ULC-wPBE) =  -3083.54052959     A.U. after   11 cycles
 SCF Done:  E(ULC-wPBE) =  -3083.54052995     A.U. after   11 cycles
 SCF Done:  E(ULC-wPBE) =  -3083.54053030     A.U. after   10 cycles
 SCF Done:  E(ULC-wPBE) =  -3083.54053083     A.U. after   10 cycles
 SCF Done:  E(ULC-wPBE) =  -3083.54053101     A.U. after    8 cycles
 SCF Done:  E(ULC-wPBE) =  -3083.54053114     A.U. after    8 cycles
 SCF Done:  E(ULC-wPBE) =  -3083.54053124     A.U. after    6 cycles
 SCF Done:  E(ULC-wPBE) =  -3083.54053120     A.U. after    6 cycles
 SCF Done:  E(ULC-wPBE) =  -3083.54053116     A.U. after    6 cycles
 Optimization completed.
    -- Stationary point found.

                         Standard orientation:
 ---------------------------------------------------------------------
 Center     Atomic      Atomic             Coordinates (Angstroms)
 Number     Number       Type             X           Y           Z
 ---------------------------------------------------------------------
      1          6           0      -10.771201   -1.774112   -1.082314
      2          6           0      -10.439720   -0.548687   -1.637123
      3          6           0       -9.226144    0.052517   -1.323551
      4          8           0       -8.876758    1.219374   -1.932683
      5          6           0       -9.444481    2.380341   -1.352096
      6          6           0       -8.334348   -0.566869   -0.440801
      7          6           0       -8.686713   -1.807752    0.101512
      8          8           0       -7.821251   -2.464455    0.934911
      9          6           0       -7.849557   -1.998253    2.271150
     10          6           0       -9.898017   -2.406260   -0.209229
     11          6           0       -7.041280    0.071860   -0.120757
     12          7           0       -6.916121    1.293449    0.303895
     13          6           0       -5.600595    1.614616    0.478536
     14          6           0       -4.693582    0.640080    0.186416
     15         16           0       -5.545902   -0.762961   -0.331313
     16          6           0       -3.227272    0.696721    0.291476
     17          6           0       -2.563653    1.897523    0.084843
     18          6           0       -1.178539    1.959501    0.199891
     19          8           0       -0.545842    3.132678   -0.072238
     20          6           0       -0.585027    4.084633    0.976244
     21          6           0       -0.429617    0.825824    0.515475
     22          6           0       -1.110389   -0.391094    0.693410
     23          8           0       -0.335580   -1.459787    0.978328
     24          6           0       -0.955275   -2.708876    1.172125
     25          6           0       -2.493200   -0.452412    0.595279
     26          6           0        1.036673    0.922357    0.657509
     27          7           0        1.630660    1.823044    1.381082
     28          6           0        2.987454    1.714586    1.277476
     29          6           0        3.457957    0.728479    0.463545
     30         16           0        2.115388   -0.117214   -0.201493
     31          6           0        4.856508    0.370548    0.174107
     32          6           0        5.814092    1.378842    0.105356
     33          6           0        7.144009    1.048429   -0.145111
     34          8           0        8.140385    1.951729   -0.212594
     35          6           0        7.822609    3.313797   -0.060229
     36          6           0        7.520788   -0.282688   -0.344044
     37          6           0        6.546576   -1.281090   -0.276385
     38          8           0        6.989838   -2.539649   -0.475024
     39          6           0        6.055520   -3.591594   -0.450263
     40          6           0        5.216469   -0.960814   -0.016129
     41          6           0        8.929625   -0.619662   -0.643744
     42          7           0        9.515167   -0.391109   -1.776079
     43          6           0       10.822946   -0.796610   -1.731876
     44          6           0       11.239150   -1.334718   -0.558150
     45         16           0        9.941800   -1.341764    0.556689
     46          1           0      -11.719179   -2.247814   -1.339662
     47          1           0      -11.099844   -0.048970   -2.345680
     48          1           0      -10.543636    2.313944   -1.320595
     49          1           0       -9.154837    3.222463   -1.990370
     50          1           0       -9.045932    2.533588   -0.339527
     51          1           0       -7.586177   -0.930734    2.332133
     52          1           0       -8.844861   -2.147954    2.718312
     53          1           0       -7.110568   -2.584654    2.828064
     54          1           0      -10.128102   -3.374553    0.233603
     55          1           0       -5.341528    2.601396    0.859057
     56          1           0       -3.101758    2.795193   -0.215798
     57          1           0       -0.001183    3.725541    1.834930
     58          1           0       -1.620818    4.298706    1.283826
     59          1           0       -0.132172    5.001178    0.582316
     60          1           0       -1.642060   -2.689123    2.031977
     61          1           0       -0.147948   -3.419479    1.375455
     62          1           0       -1.503637   -3.032101    0.274215
     63          1           0       -3.017171   -1.389962    0.767426
     64          1           0        3.619467    2.385204    1.857775
     65          1           0        5.506350    2.414365    0.223728
     66          1           0        8.766702    3.858259   -0.161978
     67          1           0        7.124798    3.655605   -0.839661
     68          1           0        7.392272    3.521852    0.931581
     69          1           0        5.568513   -3.678327    0.533205
     70          1           0        5.286831   -3.467398   -1.228190
     71          1           0        6.623174   -4.505942   -0.650113
     72          1           0        4.458623   -1.737073    0.058083
     73          1           0       11.447016   -0.672608   -2.615660
     74          1           0       12.222184   -1.721371   -0.303758
 ---------------------------------------------------------------------

 The electronic state is 1-A.
 Alpha  occ. eigenvalues --  -88.33855 -88.33267 -88.32298 -19.03454 -19.02588
 Alpha  occ. eigenvalues --  -19.02335 -19.01288 -19.00269 -19.00253 -14.22993
 Alpha  occ. eigenvalues --  -14.22372 -14.21130 -10.21027 -10.20568 -10.20292
 Alpha  occ. eigenvalues --  -10.20222 -10.20035 -10.19805 -10.19751 -10.19626
 Alpha  occ. eigenvalues --  -10.19298 -10.18967 -10.18584 -10.18358 -10.18124
 Alpha  occ. eigenvalues --  -10.17230 -10.16851 -10.16795 -10.16698 -10.16689
 Alpha  occ. eigenvalues --  -10.16241 -10.16165 -10.15621 -10.15121 -10.15085
 Alpha  occ. eigenvalues --  -10.14810 -10.14748 -10.14666 -10.13874 -10.13648
 Alpha  occ. eigenvalues --  -10.13491 -10.13445 -10.13228 -10.12936 -10.12856
 Alpha  occ. eigenvalues --   -7.94709  -7.94133  -7.93202  -5.96130  -5.95607
 Alpha  occ. eigenvalues --   -5.95555  -5.95252  -5.95034  -5.94670  -5.94612
 Alpha  occ. eigenvalues --   -5.94097  -5.93751  -1.23320  -1.22584  -1.22251
 Alpha  occ. eigenvalues --   -1.21233  -1.20404  -1.20327  -1.13160  -1.12597
 Alpha  occ. eigenvalues --   -1.11445  -1.03588  -1.02994  -1.02393  -0.98063
 Alpha  occ. eigenvalues --   -0.97331  -0.94836  -0.94515  -0.93978  -0.93111
 Alpha  occ. eigenvalues --   -0.91642  -0.91516  -0.91246  -0.89611  -0.88364
 Alpha  occ. eigenvalues --   -0.87570  -0.86320  -0.85862  -0.84347  -0.83958
 Alpha  occ. eigenvalues --   -0.83536  -0.83244  -0.79777  -0.78049  -0.76970
 Alpha  occ. eigenvalues --   -0.73869  -0.73818  -0.73416  -0.71886  -0.71349
 Alpha  occ. eigenvalues --   -0.71260  -0.70342  -0.69994  -0.69612  -0.67385
 Alpha  occ. eigenvalues --   -0.66424  -0.66130  -0.65053  -0.64930  -0.64463
 Alpha  occ. eigenvalues --   -0.63469  -0.63032  -0.62740  -0.62242  -0.61935
 Alpha  occ. eigenvalues --   -0.61829  -0.61486  -0.60919  -0.60681  -0.60634
 Alpha  occ. eigenvalues --   -0.60480  -0.59547  -0.59350  -0.58874  -0.58324
 Alpha  occ. eigenvalues --   -0.57951  -0.57515  -0.57135  -0.56327  -0.55795
 Alpha  occ. eigenvalues --   -0.55320  -0.55229  -0.54978  -0.54611  -0.54338
 Alpha  occ. eigenvalues --   -0.54087  -0.53813  -0.53099  -0.52303  -0.51785
 Alpha  occ. eigenvalues --   -0.51731  -0.51144  -0.50932  -0.50679  -0.50542
 Alpha  occ. eigenvalues --   -0.50308  -0.49603  -0.48163  -0.47626  -0.47412
 Alpha  occ. eigenvalues --   -0.47218  -0.47034  -0.46947  -0.46267  -0.46092
 Alpha  occ. eigenvalues --   -0.46044  -0.45510  -0.45016  -0.44177  -0.41196
 Alpha  occ. eigenvalues --   -0.39797  -0.39467  -0.39389  -0.39042  -0.38869
 Alpha  occ. eigenvalues --   -0.38571  -0.38446  -0.38242  -0.37803  -0.37166
 Alpha  occ. eigenvalues --   -0.35621  -0.34755  -0.34489  -0.33931  -0.32736
 Alpha  occ. eigenvalues --   -0.32541  -0.30605
 Alpha virt. eigenvalues --    0.01169   0.03625   0.06047   0.07572   0.07765
 Alpha virt. eigenvalues --    0.08104   0.09199   0.09517   0.10771   0.12913
 Alpha virt. eigenvalues --    0.13436   0.14451   0.14726   0.15434   0.15693

  Beta  occ. eigenvalues --  -88.33855 -88.33267 -88.32298 -19.03454 -19.02588
  Beta  occ. eigenvalues --  -19.02335 -19.01288 -19.00269 -19.00253 -14.22993
  Beta  occ. eigenvalues --  -14.22372 -14.21130 -10.21027 -10.20568 -10.20292
  Beta  occ. eigenvalues --  -10.20222 -10.20035 -10.19805 -10.19751 -10.19626
  Beta  occ. eigenvalues --  -10.19298 -10.18967 -10.18584 -10.18358 -10.18124
  Beta  occ. eigenvalues --  -10.17230 -10.16851 -10.16795 -10.16698 -10.16689
  Beta  occ. eigenvalues --  -10.16241 -10.16165 -10.15621 -10.15121 -10.15085
  Beta  occ. eigenvalues --  -10.14810 -10.14748 -10.14666 -10.13874 -10.13648
  Beta  occ. eigenvalues --  -10.13491 -10.13445 -10.13228 -10.12936 -10.12856
  Beta  occ. eigenvalues --   -7.94709  -7.94133  -7.93202  -5.96130  -5.95607
  Beta  occ. eigenvalues --   -5.95555  -5.95252  -5.95034  -5.94670  -5.94612
  Beta  occ. eigenvalues --   -5.94097  -5.93751  -1.23320  -1.22584  -1.22251
  Beta  occ. eigenvalues --   -1.21233  -1.20404  -1.20327  -1.13160  -1.12597
  Beta  occ. eigenvalues --   -1.11445  -1.03588  -1.02994  -1.02393  -0.98063
  Beta  occ. eigenvalues --   -0.97331  -0.94836  -0.94515  -0.93978  -0.93111
  Beta  occ. eigenvalues --   -0.91642  -0.91516  -0.91246  -0.89611  -0.88364
  Beta  occ. eigenvalues --   -0.87570  -0.86320  -0.85862  -0.84347  -0.83958
  Beta  occ. eigenvalues --   -0.83536  -0.83244  -0.79777  -0.78049  -0.76970
  Beta  occ. eigenvalues --   -0.73869  -0.73818  -0.73416  -0.71886  -0.71349
  Beta  occ. eigenvalues --   -0.71260  -0.70342  -0.69994  -0.69612  -0.67385
  Beta  occ. eigenvalues --   -0.66424  -0.66130  -0.65053  -0.64930  -0.64463
  Beta  occ. eigenvalues --   -0.63469  -0.63032  -0.62740  -0.62242  -0.61935
  Beta  occ. eigenvalues --   -0.61829  -0.61486  -0.60919  -0.60681  -0.60634
  Beta  occ. eigenvalues --   -0.60480  -0.59547  -0.59350  -0.58874  -0.58324
  Beta  occ. eigenvalues --   -0.57951  -0.57515  -0.57135  -0.56327  -0.55795
  Beta  occ. eigenvalues --   -0.55320  -0.55229  -0.54978  -0.54611  -0.54338
  Beta  occ. eigenvalues --   -0.54087  -0.53813  -0.53099  -0.52303  -0.51785
  Beta  occ. eigenvalues --   -0.51731  -0.51144  -0.50932  -0.50679  -0.50542
  Beta  occ. eigenvalues --   -0.50308  -0.49603  -0.48163  -0.47626  -0.47412
  Beta  occ. eigenvalues --   -0.47218  -0.47034  -0.46947  -0.46267  -0.46092
  Beta  occ. eigenvalues --   -0.46044  -0.45510  -0.45016  -0.44177  -0.41196
  Beta  occ. eigenvalues --   -0.39797  -0.39467  -0.39389  -0.39042  -0.38869
  Beta  occ. eigenvalues --   -0.38571  -0.38446  -0.38242  -0.37803  -0.37166
  Beta  occ. eigenvalues --   -0.35621  -0.34755  -0.34489  -0.33931  -0.32736
  Beta  occ. eigenvalues --   -0.32541  -0.30605
  Beta virt. eigenvalues --    0.01169   0.03625   0.06047   0.07572   0.07765
  Beta virt. eigenvalues --    0.08104   0.09199   0.09517   0.10771   0.12913
  Beta virt. eigenvalues --    0.13436   0.14451   0.14726   0.15434   0.15693

 Mulliken charges and spin densities:
               1          2
     1  C    0.031965  -0.000000
     2  C    0.022806   0.000000
     3  C    0.022257   0.000000
     4  O   -0.263342  -0.000000
     5  C    0.061341   0.000000
     6  C    0.036261   0.000000
     7  C    0.009095  -0.000000
     8  O   -0.272240  -0.000000
     9  C    0.056377   0.000000
    10  C    0.021732  -0.000000
    11  C   -0.030316   0.000000
    12  N   -0.171065  -0.000000
    13  C    0.113411   0.000000
    14  C   -0.222257  -0.000000
    15  S    0.195339   0.000000
    16  C    0.053929   0.000000
    17  C    0.010709  -0.000000
    18  C    0.049642   0.000000
    19  O   -0.262543   0.000000
    20  C    0.062944   0.000000
    21  C   -0.027808  -0.000000
    22  C    0.131061  -0.000000
    23  O   -0.253155  -0.000000
    24  C    0.042074   0.000000
    25  C   -0.062607   0.000000
    26  C    0.013579  -0.000000
    27  N   -0.181058   0.000000
    28  C    0.116414  -0.000000
    29  C   -0.227801  -0.000000
    30  S    0.185325   0.000000
    31  C    0.031523   0.000000
    32  C   -0.073584  -0.000000
    33  C    0.160821   0.000000
    34  O   -0.237063   0.000000
    35  C    0.042769  -0.000000
    36  C   -0.075063  -0.000000
    37  C    0.154565   0.000000
    38  O   -0.243536  -0.000000
    39  C    0.041596   0.000000
    40  C   -0.068118   0.000000
    41  C   -0.006888   0.000000
    42  N   -0.160222  -0.000000
    43  C    0.092244  -0.000000
    44  C   -0.190154   0.000000
    45  S    0.160330  -0.000000
    46  H    0.016195   0.000000
    47  H    0.009773  -0.000000
    48  H    0.030462  -0.000000
    49  H    0.054154  -0.000000
    50  H    0.051257   0.000000
    51  H    0.056753   0.000000
    52  H    0.041883  -0.000000
    53  H    0.057249   0.000000
    54  H    0.006372  -0.000000
    55  H    0.021490   0.000000
    56  H    0.004210   0.000000
    57  H    0.053059  -0.000000
    58  H    0.029283  -0.000000
    59  H    0.053457  -0.000000
    60  H    0.056698  -0.000000
    61  H    0.065688  -0.000000
    62  H    0.057437  -0.000000
    63  H    0.009175   0.000000
    64  H    0.018484  -0.000000
    65  H    0.002529   0.000000
    66  H    0.066656  -0.000000
    67  H    0.056992   0.000000
    68  H    0.049412   0.000000
    69  H    0.052883   0.000000
    70  H    0.055317  -0.000000
    71  H    0.066343   0.000000
    72  H    0.004931  -0.000000
    73  H    0.017217   0.000000
    74  H    0.043352   0.000000
 Sum of Mulliken charges =  -0.00000   0.00000

 Dipole moment (field-independent basis, Debye):
    X=             -2.6764    Y=             -1.5054    Z=              3.3378  Tot=              4.5354
 Quadrupole moment (field-independent basis, Debye-Ang):
   XX=           -247.3542   YY=           -243.2732   ZZ=           -283.2465
   XY=              3.8658   XZ=              0.3947   YZ=             -1.5179

 Normal termination of Gaussian 16 at Sat Jul 25 21:58:06 2020.
