 Gaussian 16, Revision A.03,
 Gaussian 16:  EM64L-G16RevA.03 25-Dec-2016

 ---------------------------------------------------------------
 #P uLC-wPBE/cc-pVDZ iop(3/107=0368400000, 3/108=0368400000) opt
 ---------------------------------------------------------------

 -------------
 H27 C45 S5 N5
 -------------
 Symbolic Z-matrix:
 Charge =  0 Multiplicity = 1

 SCF Done:  E(ULC-wPBE) =  -3993.60175794     A.U. after   16 cycles
 SCF Done:  E(ULC-wPBE) =  -3993.68622027     A.U. after   14 cycles
 SCF Done:  E(ULC-wPBE) =  -3993.75425803     A.U. after   15 cycles
 SCF Done:  E(ULC-wPBE) =  -3993.77052556     A.U. after   14 cycles
 SCF Done:  E(ULC-wPBE) =  -3993.77438827     A.U. after   14 cycles
 SCF Done:  E(ULC-wPBE) =  -3993.77534522     A.U. after   14 cycles
 SCF Done:  E(ULC-wPBE) =  -3993.77572075     A.U. after   15 cycles
 SCF Done:  E(ULC-wPBE) =  -3993.77585295     A.U. after   12 cycles
 SCF Done:  E(ULC-wPBE) =  -3993.77587847     A.U. after   11 cycles
 SCF Done:  E(ULC-wPBE) =  -3993.77588577     A.U. after   11 cycles
 SCF Done:  E(ULC-wPBE) =  -3993.77588894     A.U. after   11 cycles
 SCF Done:  E(ULC-wPBE) =  -3993.77589044     A.U. after   10 cycles
 SCF Done:  E(ULC-wPBE) =  -3993.77589126     A.U. after    9 cycles
 SCF Done:  E(ULC-wPBE) =  -3993.77589149     A.U. after    8 cycles
 SCF Done:  E(ULC-wPBE) =  -3993.77589167     A.U. after    7 cycles
 SCF Done:  E(ULC-wPBE) =  -3993.77589177     A.U. after    7 cycles
 SCF Done:  E(ULC-wPBE) =  -3993.77589191     A.U. after    7 cycles
 SCF Done:  E(ULC-wPBE) =  -3993.77589194     A.U. after    6 cycles
 Optimization completed.
    -- Stationary point found.

                         Standard orientation:
 ---------------------------------------------------------------------
 Center     Atomic      Atomic             Coordinates (Angstroms)
 Number     Number       Type             X           Y           Z
 ---------------------------------------------------------------------
      1          6           0      -15.283749    6.329072   -1.066670
      2          6           0      -15.916741    5.538235   -0.114806
      3          6           0      -15.273044    4.404628    0.355716
      4          6           0      -14.005079    4.096893   -0.145047
      5          7           0      -13.392774    4.854789   -1.060712
      6          6           0      -14.023668    5.938654   -1.503083
      7          6           0      -13.255372    2.911964    0.302727
      8          6           0      -13.589854    1.954535    1.223188
      9          6           0      -12.587080    0.962304    1.376517
     10          6           0      -11.500153    1.177013    0.568700
     11         16           0      -11.707345    2.597417   -0.389053
     12          6           0      -10.281976    0.359608    0.465552
     13          6           0       -9.028853    0.905829    0.184757
     14          6           0       -7.921662    0.077843    0.113603
     15          6           0       -8.082527   -1.291928    0.333231
     16          7           0       -9.279347   -1.829706    0.597155
     17          6           0      -10.331933   -1.026489    0.651749
     18          6           0       -6.956026   -2.240337    0.288475
     19          6           0       -7.025418   -3.590856    0.495333
     20          6           0       -5.765124   -4.232998    0.386166
     21          6           0       -4.742637   -3.367388    0.097577
     22         16           0       -5.335073   -1.751514   -0.049852
     23          6           0       -3.317376   -3.678003   -0.084777
     24          6           0       -2.899535   -4.905546   -0.605406
     25          6           0       -1.548954   -5.168208   -0.745454
     26          6           0       -0.627185   -4.186181   -0.372510
     27          7           0       -1.013729   -3.005940    0.122280
     28          6           0       -2.311578   -2.771384    0.262189
     29          6           0        0.824138   -4.382177   -0.499662
     30          6           0        1.527675   -5.459883   -0.969627
     31          6           0        2.931382   -5.260151   -0.931117
     32          6           0        3.280178   -4.031070   -0.432469
     33         16           0        1.882948   -3.116032   -0.000073
     34          6           0        4.635878   -3.489232   -0.254654
     35          6           0        5.720886   -4.317559    0.043399
     36          6           0        6.983655   -3.771669    0.185584
     37          6           0        7.143166   -2.390981    0.039389
     38          7           0        6.112835   -1.586508   -0.241116
     39          6           0        4.909013   -2.124504   -0.385524
     40          6           0        8.448942   -1.731804    0.184646
     41          6           0        9.675262   -2.265680    0.481295
     42          6           0       10.703755   -1.289858    0.533833
     43          6           0       10.247434   -0.022843    0.275028
     44         16           0        8.550966   -0.024884   -0.040521
     45          6           0       11.026082    1.224469    0.246039
     46          6           0       10.489232    2.457305    0.624726
     47          6           0       11.279836    3.591805    0.585106
     48          6           0       12.609729    3.476145    0.172528
     49          7           0       13.133836    2.302962   -0.198646
     50          6           0       12.361685    1.225246   -0.166913
     51          6           0       13.517579    4.632041    0.116490
     52          6           0       13.284909    5.944701    0.433274
     53          6           0       14.428725    6.768318    0.244510
     54          6           0       15.501968    6.059059   -0.211296
     55         16           0       15.142497    4.397845   -0.415701
     56          1           0      -15.754252    7.229839   -1.464636
     57          1           0      -16.908649    5.802821    0.259633
     58          1           0      -15.747592    3.765414    1.101417
     59          1           0      -13.487218    6.530570   -2.252545
     60          1           0      -14.522698    1.957139    1.787278
     61          1           0      -12.655995    0.133251    2.081534
     62          1           0       -8.918396    1.982917    0.034690
     63          1           0       -6.936640    0.497220   -0.101861
     64          1           0      -11.294589   -1.512630    0.844168
     65          1           0       -7.969017   -4.083799    0.724958
     66          1           0       -5.612477   -5.301472    0.542706
     67          1           0       -3.638004   -5.648330   -0.915879
     68          1           0       -1.213639   -6.122855   -1.152644
     69          1           0       -2.576951   -1.797507    0.689299
     70          1           0        1.060698   -6.371592   -1.342633
     71          1           0        3.658236   -5.991163   -1.287057
     72          1           0        5.568877   -5.390819    0.179760
     73          1           0        7.836322   -4.410356    0.419375
     74          1           0        4.100682   -1.426851   -0.632493
     75          1           0        9.844142   -3.326363    0.668158
     76          1           0       11.741573   -1.513979    0.782361
     77          1           0        9.451941    2.524077    0.963348
     78          1           0       10.869600    4.557978    0.881141
     79          1           0       12.827214    0.293342   -0.505425
     80          1           0       12.325918    6.319105    0.792274
     81          1           0       14.449407    7.840749    0.439902
     82          1           0       16.498365    6.435188   -0.440240
 ---------------------------------------------------------------------

 The electronic state is 1-A.
 Alpha  occ. eigenvalues --  -88.31042 -88.30590 -88.30548 -88.30309 -88.29633
 Alpha  occ. eigenvalues --  -14.20906 -14.20654 -14.20646 -14.20593 -14.20209
 Alpha  occ. eigenvalues --  -10.16397 -10.16310 -10.16193 -10.16153 -10.15689
 Alpha  occ. eigenvalues --  -10.15053 -10.15033 -10.14805 -10.14792 -10.14771
 Alpha  occ. eigenvalues --  -10.14629 -10.14558 -10.14409 -10.14315 -10.14219
 Alpha  occ. eigenvalues --  -10.14160 -10.14139 -10.13949 -10.13802 -10.13662
 Alpha  occ. eigenvalues --  -10.13516 -10.13503 -10.13482 -10.13427 -10.13340
 Alpha  occ. eigenvalues --  -10.13249 -10.13083 -10.12970 -10.12702 -10.12626
 Alpha  occ. eigenvalues --  -10.12411 -10.12382 -10.12335 -10.12106 -10.11887
 Alpha  occ. eigenvalues --  -10.11788 -10.11719 -10.11608 -10.11509 -10.11505
 Alpha  occ. eigenvalues --  -10.11432 -10.11158 -10.11150 -10.10828 -10.10521
 Alpha  occ. eigenvalues --   -7.91762  -7.91240  -7.91202  -7.90964  -7.90297
 Alpha  occ. eigenvalues --   -5.93391  -5.92874  -5.92874  -5.92835  -5.92597
 Alpha  occ. eigenvalues --   -5.92471  -5.92343  -5.92306  -5.92068  -5.91971
 Alpha  occ. eigenvalues --   -5.91932  -5.91922  -5.91693  -5.91390  -5.91047
 Alpha  occ. eigenvalues --   -1.09537  -1.09255  -1.09217  -1.09122  -1.08795
 Alpha  occ. eigenvalues --   -1.03876  -1.03501  -1.03248  -1.03022  -1.01961
 Alpha  occ. eigenvalues --   -0.96632  -0.96117  -0.95777  -0.95454  -0.94831
 Alpha  occ. eigenvalues --   -0.93523  -0.93145  -0.92757  -0.92039  -0.91547
 Alpha  occ. eigenvalues --   -0.88498  -0.88059  -0.87753  -0.87681  -0.87514
 Alpha  occ. eigenvalues --   -0.86874  -0.86621  -0.85491  -0.83939  -0.82876
 Alpha  occ. eigenvalues --   -0.79362  -0.78493  -0.77828  -0.77514  -0.77007
 Alpha  occ. eigenvalues --   -0.76773  -0.76583  -0.75964  -0.75162  -0.74999
 Alpha  occ. eigenvalues --   -0.69381  -0.69218  -0.69015  -0.68989  -0.68584
 Alpha  occ. eigenvalues --   -0.68393  -0.68289  -0.68028  -0.67667  -0.67432
 Alpha  occ. eigenvalues --   -0.66002  -0.65674  -0.65060  -0.64598  -0.63985
 Alpha  occ. eigenvalues --   -0.62910  -0.61806  -0.61640  -0.61480  -0.61199
 Alpha  occ. eigenvalues --   -0.61065  -0.59844  -0.58745  -0.58104  -0.57877
 Alpha  occ. eigenvalues --   -0.57437  -0.57300  -0.57008  -0.56655  -0.56097
 Alpha  occ. eigenvalues --   -0.55906  -0.55656  -0.55470  -0.55222  -0.55019
 Alpha  occ. eigenvalues --   -0.53766  -0.53274  -0.53085  -0.52901  -0.52684
 Alpha  occ. eigenvalues --   -0.52643  -0.52430  -0.52161  -0.51864  -0.51691
 Alpha  occ. eigenvalues --   -0.51391  -0.51183  -0.50585  -0.50455  -0.50132
 Alpha  occ. eigenvalues --   -0.50025  -0.49780  -0.49576  -0.49330  -0.49048
 Alpha  occ. eigenvalues --   -0.48858  -0.48256  -0.48191  -0.48104  -0.47872
 Alpha  occ. eigenvalues --   -0.47609  -0.45623  -0.45591  -0.45347  -0.45169
 Alpha  occ. eigenvalues --   -0.44761  -0.43680  -0.42681  -0.41571  -0.40679
 Alpha  occ. eigenvalues --   -0.40388  -0.39886  -0.39621  -0.39356  -0.38879
 Alpha  occ. eigenvalues --   -0.37861  -0.37590  -0.37522  -0.37286  -0.37200
 Alpha  occ. eigenvalues --   -0.36783  -0.36125  -0.35879  -0.35846  -0.35614
 Alpha  occ. eigenvalues --   -0.34902  -0.34387  -0.32817  -0.31105  -0.29545
 Alpha  occ. eigenvalues --   -0.28573
 Alpha virt. eigenvalues --   -0.01415  -0.00218   0.01220   0.02894   0.04117
 Alpha virt. eigenvalues --    0.04775   0.04928   0.05141   0.05175   0.05411
 Alpha virt. eigenvalues --    0.07588   0.08995   0.10446   0.11696   0.12007

  Beta  occ. eigenvalues --  -88.31042 -88.30590 -88.30548 -88.30309 -88.29633
  Beta  occ. eigenvalues --  -14.20906 -14.20654 -14.20646 -14.20593 -14.20209
  Beta  occ. eigenvalues --  -10.16397 -10.16310 -10.16193 -10.16153 -10.15689
  Beta  occ. eigenvalues --  -10.15053 -10.15033 -10.14805 -10.14792 -10.14771
  Beta  occ. eigenvalues --  -10.14629 -10.14558 -10.14409 -10.14315 -10.14219
  Beta  occ. eigenvalues --  -10.14160 -10.14139 -10.13949 -10.13802 -10.13662
  Beta  occ. eigenvalues --  -10.13516 -10.13503 -10.13482 -10.13427 -10.13340
  Beta  occ. eigenvalues --  -10.13249 -10.13083 -10.12970 -10.12702 -10.12626
  Beta  occ. eigenvalues --  -10.12411 -10.12382 -10.12335 -10.12106 -10.11887
  Beta  occ. eigenvalues --  -10.11788 -10.11719 -10.11608 -10.11509 -10.11505
  Beta  occ. eigenvalues --  -10.11432 -10.11158 -10.11150 -10.10828 -10.10521
  Beta  occ. eigenvalues --   -7.91762  -7.91240  -7.91202  -7.90964  -7.90297
  Beta  occ. eigenvalues --   -5.93391  -5.92874  -5.92874  -5.92835  -5.92597
  Beta  occ. eigenvalues --   -5.92471  -5.92343  -5.92306  -5.92068  -5.91971
  Beta  occ. eigenvalues --   -5.91932  -5.91922  -5.91693  -5.91390  -5.91047
  Beta  occ. eigenvalues --   -1.09537  -1.09255  -1.09217  -1.09122  -1.08795
  Beta  occ. eigenvalues --   -1.03876  -1.03501  -1.03248  -1.03022  -1.01961
  Beta  occ. eigenvalues --   -0.96632  -0.96117  -0.95777  -0.95454  -0.94831
  Beta  occ. eigenvalues --   -0.93523  -0.93145  -0.92757  -0.92039  -0.91547
  Beta  occ. eigenvalues --   -0.88498  -0.88059  -0.87753  -0.87681  -0.87514
  Beta  occ. eigenvalues --   -0.86874  -0.86621  -0.85491  -0.83939  -0.82876
  Beta  occ. eigenvalues --   -0.79362  -0.78493  -0.77828  -0.77514  -0.77007
  Beta  occ. eigenvalues --   -0.76773  -0.76583  -0.75964  -0.75162  -0.74999
  Beta  occ. eigenvalues --   -0.69381  -0.69218  -0.69015  -0.68989  -0.68584
  Beta  occ. eigenvalues --   -0.68393  -0.68289  -0.68028  -0.67667  -0.67432
  Beta  occ. eigenvalues --   -0.66002  -0.65674  -0.65060  -0.64598  -0.63985
  Beta  occ. eigenvalues --   -0.62910  -0.61806  -0.61640  -0.61480  -0.61199
  Beta  occ. eigenvalues --   -0.61065  -0.59844  -0.58745  -0.58104  -0.57877
  Beta  occ. eigenvalues --   -0.57437  -0.57300  -0.57008  -0.56655  -0.56097
  Beta  occ. eigenvalues --   -0.55906  -0.55656  -0.55470  -0.55222  -0.55019
  Beta  occ. eigenvalues --   -0.53766  -0.53274  -0.53085  -0.52901  -0.52684
  Beta  occ. eigenvalues --   -0.52643  -0.52430  -0.52161  -0.51864  -0.51691
  Beta  occ. eigenvalues --   -0.51391  -0.51183  -0.50585  -0.50455  -0.50132
  Beta  occ. eigenvalues --   -0.50025  -0.49780  -0.49576  -0.49330  -0.49048
  Beta  occ. eigenvalues --   -0.48858  -0.48256  -0.48191  -0.48104  -0.47872
  Beta  occ. eigenvalues --   -0.47609  -0.45623  -0.45591  -0.45347  -0.45169
  Beta  occ. eigenvalues --   -0.44761  -0.43680  -0.42681  -0.41571  -0.40679
  Beta  occ. eigenvalues --   -0.40388  -0.39886  -0.39621  -0.39356  -0.38879
  Beta  occ. eigenvalues --   -0.37861  -0.37590  -0.37522  -0.37286  -0.37200
  Beta  occ. eigenvalues --   -0.36783  -0.36125  -0.35879  -0.35846  -0.35614
  Beta  occ. eigenvalues --   -0.34902  -0.34387  -0.32817  -0.31105  -0.29545
  Beta  occ. eigenvalues --   -0.28573
  Beta virt. eigenvalues --   -0.01415  -0.00218   0.01220   0.02894   0.04117
  Beta virt. eigenvalues --    0.04775   0.04928   0.05141   0.05175   0.05411
  Beta virt. eigenvalues --    0.07588   0.08995   0.10446   0.11696   0.12007

 Mulliken charges and spin densities:
               1          2
     1  C   -0.057256  -0.000000
     2  C    0.064705  -0.000000
     3  C   -0.026062   0.000000
     4  C    0.133046  -0.000000
     5  N   -0.214542  -0.000000
     6  C    0.091140  -0.000000
     7  C   -0.150326   0.000000
     8  C   -0.002338  -0.000000
     9  C    0.027498   0.000000
    10  C   -0.166578  -0.000000
    11  S    0.208711   0.000000
    12  C   -0.032933   0.000000
    13  C    0.061714  -0.000000
    14  C   -0.013535   0.000000
    15  C    0.111538   0.000000
    16  N   -0.198012   0.000000
    17  C    0.094280  -0.000000
    18  C   -0.169595  -0.000000
    19  C    0.062236   0.000000
    20  C    0.026987  -0.000000
    21  C   -0.162775   0.000000
    22  S    0.153739  -0.000000
    23  C   -0.022666   0.000000
    24  C    0.061598  -0.000000
    25  C   -0.005651   0.000000
    26  C    0.142659  -0.000000
    27  N   -0.211796  -0.000000
    28  C    0.095434  -0.000000
    29  C   -0.156158   0.000000
    30  C   -0.007080   0.000000
    31  C    0.027656  -0.000000
    32  C   -0.169963  -0.000000
    33  S    0.216653  -0.000000
    34  C   -0.028348  -0.000000
    35  C    0.061461   0.000000
    36  C   -0.006037  -0.000000
    37  C    0.142382   0.000000
    38  N   -0.212252  -0.000000
    39  C    0.097328   0.000000
    40  C   -0.155602  -0.000000
    41  C   -0.007564  -0.000000
    42  C    0.029147  -0.000000
    43  C   -0.166708   0.000000
    44  S    0.209883   0.000000
    45  C   -0.033845   0.000000
    46  C    0.062713  -0.000000
    47  C   -0.006221  -0.000000
    48  C    0.146100   0.000000
    49  N   -0.212189  -0.000000
    50  C    0.095666   0.000000
    51  C   -0.155796  -0.000000
    52  C   -0.036189  -0.000000
    53  C    0.054271   0.000000
    54  C   -0.146322   0.000000
    55  S    0.199535   0.000000
    56  H    0.011121   0.000000
    57  H    0.014028   0.000000
    58  H    0.005689   0.000000
    59  H    0.021209  -0.000000
    60  H    0.001565  -0.000000
    61  H    0.001831   0.000000
    62  H    0.014020  -0.000000
    63  H    0.018538   0.000000
    64  H    0.014044   0.000000
    65  H    0.008534  -0.000000
    66  H    0.002530  -0.000000
    67  H    0.005125  -0.000000
    68  H    0.005101   0.000000
    69  H    0.023621  -0.000000
    70  H    0.000718  -0.000000
    71  H   -0.000909  -0.000000
    72  H    0.003355  -0.000000
    73  H    0.004624  -0.000000
    74  H    0.025353  -0.000000
    75  H    0.000488   0.000000
    76  H    0.002212  -0.000000
    77  H    0.012717   0.000000
    78  H    0.005211   0.000000
    79  H    0.015548   0.000000
    80  H    0.001433   0.000000
    81  H    0.003090   0.000000
    82  H    0.035462   0.000000
 Sum of Mulliken charges =  -0.00000   0.00000

 Dipole moment (field-independent basis, Debye):
    X=             -5.9859    Y=             -1.4023    Z=              1.0450  Tot=              6.2361
 Quadrupole moment (field-independent basis, Debye-Ang):
   XX=           -282.2652   YY=           -277.9724   ZZ=           -354.5147
   XY=            -40.7770   XZ=             -3.8774   YZ=              5.8799

 Normal termination of Gaussian 16 at Sat Jul 25 12:46:51 2020.
