 Gaussian 16, Revision A.03,
 Gaussian 16:  EM64L-G16RevA.03 25-Dec-2016

 ---------------------------------------------------------------
 #P uLC-wPBE/cc-pVDZ iop(3/107=0156700000, 3/108=0156700000) opt
 ---------------------------------------------------------------

 ----------------
 H11 C11 S1 N1 O2
 ----------------
 Symbolic Z-matrix:
 Charge =  0 Multiplicity = 1

 SCF Done:  E(ULC-wPBE) =  -1028.39596780     A.U. after   15 cycles
 SCF Done:  E(ULC-wPBE) =  -1028.43477374     A.U. after   14 cycles
 SCF Done:  E(ULC-wPBE) =  -1028.44516718     A.U. after   14 cycles
 SCF Done:  E(ULC-wPBE) =  -1028.44649103     A.U. after   13 cycles
 SCF Done:  E(ULC-wPBE) =  -1028.44718879     A.U. after   13 cycles
 SCF Done:  E(ULC-wPBE) =  -1028.44728745     A.U. after   13 cycles
 SCF Done:  E(ULC-wPBE) =  -1028.44722179     A.U. after   13 cycles
 SCF Done:  E(ULC-wPBE) =  -1028.44749116     A.U. after   13 cycles
 SCF Done:  E(ULC-wPBE) =  -1028.44753187     A.U. after   12 cycles
 SCF Done:  E(ULC-wPBE) =  -1028.44753398     A.U. after   10 cycles
 SCF Done:  E(ULC-wPBE) =  -1028.44753453     A.U. after    8 cycles
 SCF Done:  E(ULC-wPBE) =  -1028.44753471     A.U. after    8 cycles
 SCF Done:  E(ULC-wPBE) =  -1028.44753477     A.U. after    7 cycles
 SCF Done:  E(ULC-wPBE) =  -1028.44753479     A.U. after    7 cycles
 Optimization completed.
    -- Stationary point found.

                         Standard orientation:
 ---------------------------------------------------------------------
 Center     Atomic      Atomic             Coordinates (Angstroms)
 Number     Number       Type             X           Y           Z
 ---------------------------------------------------------------------
      1          6           0       -3.491973   -0.855467    0.490721
      2          6           0       -2.606517   -1.914968    0.697384
      3          7           0       -1.279351   -1.808150    0.524446
      4          6           0       -0.764560   -0.631175    0.116964
      5          6           0       -1.602298    0.477271   -0.205608
      6          8           0       -0.998497    1.564999   -0.755510
      7          6           0       -1.809371    2.696940   -1.035907
      8          6           0       -2.981472    0.361855    0.021344
      9          6           0        0.697906   -0.592316   -0.044372
     10          6           0        1.641416    0.398844    0.230472
     11          8           0        1.265436    1.601382    0.752611
     12          6           0        2.306609    2.537386    0.996467
     13          6           0        2.988256   -0.019546   -0.029156
     14          6           0        3.050811   -1.322858   -0.471311
     15         16           0        1.496099   -2.059636   -0.562133
     16          1           0       -4.568278   -0.976940    0.673386
     17          1           0       -2.971587   -2.900717    1.026486
     18          1           0       -2.289689    3.097212   -0.116905
     19          1           0       -2.597856    2.466855   -1.785364
     20          1           0       -1.128238    3.460173   -1.450837
     21          1           0       -3.658531    1.199154   -0.187620
     22          1           0        2.845538    2.810132    0.063010
     23          1           0        3.041063    2.156345    1.739187
     24          1           0        1.816657    3.438494    1.406209
     25          1           0        3.874632    0.606797    0.116149
     26          1           0        3.945802   -1.893120   -0.739485
 ---------------------------------------------------------------------

 The electronic state is 1-A.
 Alpha  occ. eigenvalues --  -88.17582 -18.89000 -18.88253 -14.07496 -10.04838
 Alpha  occ. eigenvalues --  -10.04511 -10.04026 -10.03948 -10.02494 -10.00741
 Alpha  occ. eigenvalues --  -10.00586 -10.00057  -9.99862  -9.99194  -9.98618
 Alpha  occ. eigenvalues --   -7.77851  -5.79907  -5.79451  -5.79064  -1.07408
 Alpha  occ. eigenvalues --   -1.06326  -0.94206  -0.88282  -0.81117  -0.79509
 Alpha  occ. eigenvalues --   -0.76127  -0.74516  -0.72337  -0.70005  -0.65438
 Alpha  occ. eigenvalues --   -0.63451  -0.59173  -0.58224  -0.57023  -0.54987
 Alpha  occ. eigenvalues --   -0.53112  -0.50604  -0.50403  -0.49688  -0.48647
 Alpha  occ. eigenvalues --   -0.46745  -0.46404  -0.45801  -0.44749  -0.43723
 Alpha  occ. eigenvalues --   -0.41826  -0.41501  -0.41252  -0.37878  -0.37710
 Alpha  occ. eigenvalues --   -0.37412  -0.36294  -0.35265  -0.33096  -0.29291
 Alpha  occ. eigenvalues --   -0.28513  -0.26941  -0.24197
 Alpha virt. eigenvalues --    0.00713   0.03929   0.06010   0.09267   0.10692
 Alpha virt. eigenvalues --    0.11602   0.12617   0.13149   0.14436   0.14842
 Alpha virt. eigenvalues --    0.16509   0.16720   0.17024   0.17832   0.17897

  Beta  occ. eigenvalues --  -88.17582 -18.89000 -18.88253 -14.07496 -10.04838
  Beta  occ. eigenvalues --  -10.04511 -10.04026 -10.03948 -10.02494 -10.00741
  Beta  occ. eigenvalues --  -10.00586 -10.00057  -9.99862  -9.99194  -9.98618
  Beta  occ. eigenvalues --   -7.77851  -5.79907  -5.79451  -5.79064  -1.07408
  Beta  occ. eigenvalues --   -1.06326  -0.94206  -0.88282  -0.81117  -0.79509
  Beta  occ. eigenvalues --   -0.76127  -0.74516  -0.72337  -0.70005  -0.65438
  Beta  occ. eigenvalues --   -0.63451  -0.59173  -0.58224  -0.57023  -0.54987
  Beta  occ. eigenvalues --   -0.53112  -0.50604  -0.50403  -0.49688  -0.48647
  Beta  occ. eigenvalues --   -0.46745  -0.46404  -0.45801  -0.44749  -0.43723
  Beta  occ. eigenvalues --   -0.41826  -0.41501  -0.41252  -0.37878  -0.37710
  Beta  occ. eigenvalues --   -0.37412  -0.36294  -0.35265  -0.33096  -0.29291
  Beta  occ. eigenvalues --   -0.28513  -0.26941  -0.24197
  Beta virt. eigenvalues --    0.00713   0.03929   0.06010   0.09267   0.10692
  Beta virt. eigenvalues --    0.11602   0.12617   0.13149   0.14436   0.14842
  Beta virt. eigenvalues --    0.16509   0.16720   0.17024   0.17832   0.17897

 Mulliken charges and spin densities:
               1          2
     1  C   -0.025050   0.000000
     2  C    0.079570  -0.000000
     3  N   -0.197624   0.000000
     4  C    0.078571  -0.000000
     5  C    0.107855  -0.000000
     6  O   -0.217663  -0.000000
     7  C    0.060214   0.000000
     8  C    0.016355   0.000000
     9  C   -0.166895   0.000000
    10  C    0.132366  -0.000000
    11  O   -0.227702  -0.000000
    12  C    0.059183  -0.000000
    13  C    0.018268   0.000000
    14  C   -0.125837  -0.000000
    15  S    0.186199  -0.000000
    16  H   -0.018606   0.000000
    17  H   -0.006035   0.000000
    18  H    0.043087   0.000000
    19  H    0.042808  -0.000000
    20  H    0.048582  -0.000000
    21  H   -0.013235   0.000000
    22  H    0.039939  -0.000000
    23  H    0.041588  -0.000000
    24  H    0.043402   0.000000
    25  H   -0.014768   0.000000
    26  H    0.015427  -0.000000
 Sum of Mulliken charges =  -0.00000  -0.00000

 Dipole moment (field-independent basis, Debye):
    X=             -0.2102    Y=              3.7477    Z=             -0.3893  Tot=              3.7737
 Quadrupole moment (field-independent basis, Debye-Ang):
   XX=            -75.9224   YY=            -85.1710   ZZ=            -96.0735
   XY=             -0.6461   XZ=              1.3521   YZ=              0.4371

 Normal termination of Gaussian 16 at Fri Jul 24 22:51:22 2020.
